HOOMD-blue v2.6.0-21-g2be9960 CUDA (10.1) DOUBLE HPMC_MIXED MPI TBB SSE SSE2 SSE3 SSE4_1 SSE4_2 AVX AVX2 
Compiled: 09/27/2019
Copyright (c) 2009-2019 The Regents of the University of Michigan.
-----
You are using HOOMD-blue. Please cite the following:
* J A Anderson, C D Lorenz, and A Travesset. "General purpose molecular dynamics
  simulations fully implemented on graphics processing units", Journal of
  Computational Physics 227 (2008) 5342--5359
* J Glaser, T D Nguyen, J A Anderson, P Liu, F Spiga, J A Millan, D C Morse, and
  S C Glotzer. "Strong scaling of general-purpose molecular dynamics simulations
  on GPUs", Computer Physics Communications 192 (2015) 97--107
-----
-----
You are using HPMC. Please cite the following:
* J A Anderson, M E Irrgang, and S C Glotzer. "Scalable Metropolis Monte Carlo
  for simulation of hard shapes", Computer Physics Communications 204 (2016) 21
  --30
* J A Anderson, M E Irrgang, and S C Glotzer. "Scalable Metropolis Monte Carlo
  for simulation of hard shapes", Computer Physics Communications 204 (2016) 21
  --30
-----
Ranks 0-1: HOOMD-blue is running on the CPU
plugin_mpi_test_2d.py:020  |  system = hoomd.init.read_gsd("trajectory_mine_position.gsd",frame=-1)
HOOMD-blue is using domain decomposition: n_x = 1 n_y = 2 n_z = 1.
1 x 2 x 1 local grid on 1 nodes
notice(2): Group "all" created containing 1024 particles
plugin_mpi_test_2d.py:000  |  import hoomd
#import hoomd.hpmc
import numpy as np
import hoomd.hpmc_swap_plugin as swap

hoomd.context.initialize("--mode=cpu --notice-level=2");
LParticles = 25
r = 0.45
d = 2
dmax = 1.0 
dmin = r*dmax
dbox = 0.05*dmax
dtrans = 0.6
#Set their id's
#NParticles = 100
#Length = 10.0#*2.1
#d = 2
#LParticles = int(NParticles**0.5)

system = hoomd.init.read_gsd("trajectory_mine_position.gsd",frame=-1)
#snap = system.take_snapshot()
#for i in range(len(snap.particles.diameter)):
#    hoomd.context.current.system_definition.getParticleData().setType(i,0);
#print(type(system))
#system = hoomd.init.create_lattice(unitcell=hoomd.lattice.sq(a=1.05), n=10);
#print(system.sysdef)
#print(hoomd.context.current.system_definition)
#print(hoomd.context.current.system.run)
#mc = swap.integrate.pnt(d=dtrans, seed=1,move_ratio=0.8,swap_mode='position',soft_mode='soft');#//10**6);
#mc = swap.integrate.pnt(d=dtrans, seed=1,move_ratio=0.0,swap_mode='position',soft_mode='hard');#//10**6);
mc = swap.integrate.sph_poly(d=dtrans, seed=1,move_ratio=0.95,swap_mode='diameter',soft_mode='hard');#//10**6);
plugin_mpi_test_2d.py:037  |  d = hoomd.dump.gsd("test_1.gsd", period=120000, group=hoomd.group.all(), dynamic=['attribute'],overwrite=True);
plugin_mpi_test_2d.py:037  |  d = hoomd.dump.gsd("test_1.gsd", period=120000, group=hoomd.group.all(), dynamic=['attribute'],overwrite=True);
plugin_mpi_test_2d.py:038  |  hoomd.run(12000000);
** starting run **
Time 00:00:10 | Step 10235 / 12000000 | TPS 1023.46 | ETA 03:15:14
Time 00:00:20 | Step 20467 / 12000000 | TPS 1023.11 | ETA 03:15:08
Time 00:00:30 | Step 30720 / 12000000 | TPS 1025.22 | ETA 03:14:34
Time 00:00:40 | Step 40929 / 12000000 | TPS 1020.86 | ETA 03:15:14
Time 00:00:50 | Step 51128 / 12000000 | TPS 1019.85 | ETA 03:15:16
Time 00:01:00 | Step 61281 / 12000000 | TPS 1015.3 | ETA 03:15:58
Time 00:01:10 | Step 71397 / 12000000 | TPS 1011.56 | ETA 03:16:32
Time 00:01:20 | Step 81582 / 12000000 | TPS 1018.4 | ETA 03:15:03
Time 00:01:30 | Step 91674 / 12000000 | TPS 1009.17 | ETA 03:16:40
Time 00:01:40 | Step 101827 / 12000000 | TPS 1015.21 | ETA 03:15:19
Time 00:01:50 | Step 111762 / 12000000 | TPS 993.394 | ETA 03:19:27
Time 00:02:00 | Step 121733 / 12000000 | TPS 997.087 | ETA 03:18:32
Time 00:02:10 | Step 131918 / 12000000 | TPS 1018.48 | ETA 03:14:12
Time 00:02:20 | Step 142138 / 12000000 | TPS 1021.98 | ETA 03:13:22
Time 00:02:30 | Step 152382 / 12000000 | TPS 1024.34 | ETA 03:12:46
Time 00:02:40 | Step 162521 / 12000000 | TPS 1013.9 | ETA 03:14:35
Time 00:02:50 | Step 172764 / 12000000 | TPS 1024.23 | ETA 03:12:27
Time 00:03:00 | Step 183014 / 12000000 | TPS 1024.92 | ETA 03:12:09
Time 00:03:10 | Step 193274 / 12000000 | TPS 1025.95 | ETA 03:11:48
Time 00:03:20 | Step 203473 / 12000000 | TPS 1019.87 | ETA 03:12:46
Time 00:03:30 | Step 213663 / 12000000 | TPS 1018.9 | ETA 03:12:47
Time 00:03:40 | Step 223829 / 12000000 | TPS 1016.52 | ETA 03:13:04
Time 00:03:50 | Step 234044 / 12000000 | TPS 1021.43 | ETA 03:11:59
Time 00:04:00 | Step 244151 / 12000000 | TPS 1010.63 | ETA 03:13:52
Time 00:04:10 | Step 254349 / 12000000 | TPS 1019.73 | ETA 03:11:58
Time 00:04:20 | Step 264574 / 12000000 | TPS 1022.42 | ETA 03:11:18
Time 00:04:30 | Step 274736 / 12000000 | TPS 1016.15 | ETA 03:12:18
Time 00:04:40 | Step 284794 / 12000000 | TPS 1005.75 | ETA 03:14:08
Time 00:04:50 | Step 295051 / 12000000 | TPS 1025.68 | ETA 03:10:11
Time 00:05:00 | Step 305254 / 12000000 | TPS 1020.28 | ETA 03:11:02
Time 00:05:10 | Step 315235 / 12000000 | TPS 998.082 | ETA 03:15:07
Time 00:05:20 | Step 325376 / 12000000 | TPS 1014.08 | ETA 03:11:52
Time 00:05:30 | Step 335591 / 12000000 | TPS 1021.47 | ETA 03:10:19
Time 00:05:40 | Step 345819 / 12000000 | TPS 1022.73 | ETA 03:09:55
Time 00:05:50 | Step 356019 / 12000000 | TPS 1019.93 | ETA 03:10:16
Time 00:06:00 | Step 366222 / 12000000 | TPS 1020.24 | ETA 03:10:02
Time 00:06:10 | Step 376444 / 12000000 | TPS 1022.16 | ETA 03:09:31
Time 00:06:20 | Step 386672 / 12000000 | TPS 1022.75 | ETA 03:09:15
Time 00:06:30 | Step 396878 / 12000000 | TPS 1020.56 | ETA 03:09:29
Time 00:06:40 | Step 407096 / 12000000 | TPS 1021.75 | ETA 03:09:06
Time 00:06:50 | Step 417284 / 12000000 | TPS 1018.75 | ETA 03:09:29
Time 00:07:00 | Step 427531 / 12000000 | TPS 1024.66 | ETA 03:08:13
Time 00:07:10 | Step 437774 / 12000000 | TPS 1024.28 | ETA 03:08:08
Time 00:07:20 | Step 448011 / 12000000 | TPS 1023.7 | ETA 03:08:04
Time 00:07:30 | Step 458241 / 12000000 | TPS 1022.96 | ETA 03:08:02
Time 00:07:40 | Step 468443 / 12000000 | TPS 1020.07 | ETA 03:08:24
Time 00:07:50 | Step 478667 / 12000000 | TPS 1022.35 | ETA 03:07:49
Time 00:08:00 | Step 488689 / 12000000 | TPS 1002.12 | ETA 03:11:26
Time 00:08:10 | Step 498778 / 12000000 | TPS 1008.87 | ETA 03:10:00
Time 00:08:20 | Step 508977 / 12000000 | TPS 1019.82 | ETA 03:07:47
Time 00:08:30 | Step 519202 / 12000000 | TPS 1022.49 | ETA 03:07:08
Time 00:08:40 | Step 529432 / 12000000 | TPS 1022.96 | ETA 03:06:53
Time 00:08:50 | Step 539622 / 12000000 | TPS 1018.97 | ETA 03:07:27
Time 00:09:00 | Step 549851 / 12000000 | TPS 1022.84 | ETA 03:06:34
Time 00:09:10 | Step 560061 / 12000000 | TPS 1020.95 | ETA 03:06:45
Time 00:09:20 | Step 570319 / 12000000 | TPS 1025.77 | ETA 03:05:42
Time 00:09:30 | Step 580603 / 12000000 | TPS 1028.33 | ETA 03:05:04
Time 00:09:40 | Step 590808 / 12000000 | TPS 1020.44 | ETA 03:06:20
Time 00:09:50 | Step 601032 / 12000000 | TPS 1022.34 | ETA 03:05:49
Time 00:10:00 | Step 611250 / 12000000 | TPS 1021.8 | ETA 03:05:45
Time 00:10:10 | Step 621483 / 12000000 | TPS 1023.28 | ETA 03:05:19
Time 00:10:20 | Step 631690 / 12000000 | TPS 1020.62 | ETA 03:05:38
Time 00:10:30 | Step 641865 / 12000000 | TPS 1017.4 | ETA 03:06:03
Time 00:10:40 | Step 652011 / 12000000 | TPS 1014.53 | ETA 03:06:25
Time 00:10:50 | Step 662171 / 12000000 | TPS 1015.94 | ETA 03:05:59
Time 00:11:00 | Step 672401 / 12000000 | TPS 1022.89 | ETA 03:04:34
Time 00:11:10 | Step 682640 / 12000000 | TPS 1023.88 | ETA 03:04:13
Time 00:11:20 | Step 692903 / 12000000 | TPS 1026.23 | ETA 03:03:38
Time 00:11:30 | Step 703118 / 12000000 | TPS 1021.44 | ETA 03:04:19
Time 00:11:40 | Step 713344 / 12000000 | TPS 1022.5 | ETA 03:03:58
Time 00:11:50 | Step 723524 / 12000000 | TPS 1017.95 | ETA 03:04:37
Time 00:12:00 | Step 733733 / 12000000 | TPS 1020.85 | ETA 03:03:56
Time 00:12:10 | Step 743940 / 12000000 | TPS 1020.67 | ETA 03:03:48
Time 00:12:20 | Step 754152 / 12000000 | TPS 1021.14 | ETA 03:03:33
Time 00:12:30 | Step 764371 / 12000000 | TPS 1021.83 | ETA 03:03:15
Time 00:12:40 | Step 774588 / 12000000 | TPS 1021.7 | ETA 03:03:06
Time 00:12:50 | Step 784822 / 12000000 | TPS 1023.32 | ETA 03:02:39
Time 00:13:00 | Step 795086 / 12000000 | TPS 1026.32 | ETA 03:01:57
Time 00:13:10 | Step 805307 / 12000000 | TPS 1022 | ETA 03:02:33
Time 00:13:20 | Step 815598 / 12000000 | TPS 1029.05 | ETA 03:01:08
Time 00:13:30 | Step 825821 / 12000000 | TPS 1022.23 | ETA 03:02:11
Time 00:13:40 | Step 836084 / 12000000 | TPS 1026.23 | ETA 03:01:18
Time 00:13:50 | Step 846314 / 12000000 | TPS 1022.95 | ETA 03:01:43
Time 00:14:00 | Step 856543 / 12000000 | TPS 1022.87 | ETA 03:01:34
Time 00:14:10 | Step 866818 / 12000000 | TPS 1027.5 | ETA 03:00:35
Time 00:14:20 | Step 877054 / 12000000 | TPS 1023.59 | ETA 03:01:06
Time 00:14:30 | Step 887311 / 12000000 | TPS 1025.66 | ETA 03:00:34
Time 00:14:40 | Step 897566 / 12000000 | TPS 1025.49 | ETA 03:00:26
Time 00:14:50 | Step 907811 / 12000000 | TPS 1024.42 | ETA 03:00:27
Time 00:15:00 | Step 918052 / 12000000 | TPS 1024.06 | ETA 03:00:21
Time 00:15:10 | Step 928338 / 12000000 | TPS 1028.51 | ETA 02:59:24
Time 00:15:20 | Step 938593 / 12000000 | TPS 1025.47 | ETA 02:59:46
Time 00:15:30 | Step 948896 / 12000000 | TPS 1030.21 | ETA 02:58:47
Time 00:15:40 | Step 959185 / 12000000 | TPS 1028.89 | ETA 02:58:50
Time 00:15:50 | Step 969436 / 12000000 | TPS 1025.03 | ETA 02:59:21
Time 00:16:00 | Step 979674 / 12000000 | TPS 1023.73 | ETA 02:59:24
Time 00:16:10 | Step 989950 / 12000000 | TPS 1027.53 | ETA 02:58:35
Time 00:16:20 | Step 999971 / 12000000 | TPS 1002.04 | ETA 03:02:57
Time 00:16:30 | Step 1010115 / 12000000 | TPS 1014.33 | ETA 03:00:34
Time 00:16:40 | Step 1020409 / 12000000 | TPS 1029.37 | ETA 02:57:46
Time 00:16:50 | Step 1030714 / 12000000 | TPS 1030.41 | ETA 02:57:25
Time 00:17:00 | Step 1040845 / 12000000 | TPS 1013.08 | ETA 03:00:17
Time 00:17:10 | Step 1051053 / 12000000 | TPS 1020.8 | ETA 02:58:45
Time 00:17:20 | Step 1061325 / 12000000 | TPS 1027.17 | ETA 02:57:29
Time 00:17:30 | Step 1071621 / 12000000 | TPS 1029.55 | ETA 02:56:54
Time 00:17:40 | Step 1081912 / 12000000 | TPS 1029.09 | ETA 02:56:49
Time 00:17:50 | Step 1092120 / 12000000 | TPS 1020.71 | ETA 02:58:06
Time 00:18:00 | Step 1102403 / 12000000 | TPS 1028.21 | ETA 02:56:38
Time 00:18:10 | Step 1112668 / 12000000 | TPS 1026.43 | ETA 02:56:46
Time 00:18:20 | Step 1122953 / 12000000 | TPS 1028.4 | ETA 02:56:16
Time 00:18:30 | Step 1133168 / 12000000 | TPS 1021.42 | ETA 02:57:18
Time 00:18:40 | Step 1143413 / 12000000 | TPS 1024.5 | ETA 02:56:36
Time 00:18:50 | Step 1153660 / 12000000 | TPS 1024.69 | ETA 02:56:24
Time 00:19:00 | Step 1163945 / 12000000 | TPS 1028.42 | ETA 02:55:36
Time 00:19:10 | Step 1174197 / 12000000 | TPS 1025.2 | ETA 02:55:59
Time 00:19:20 | Step 1184210 / 12000000 | TPS 1001.25 | ETA 03:00:02
Time 00:19:30 | Step 1194270 / 12000000 | TPS 1005.93 | ETA 02:59:02
Time 00:19:40 | Step 1204508 / 12000000 | TPS 1023.76 | ETA 02:55:44
Time 00:19:50 | Step 1214779 / 12000000 | TPS 1027.01 | ETA 02:55:01
Time 00:20:00 | Step 1225039 / 12000000 | TPS 1025.93 | ETA 02:55:02
Time 00:20:10 | Step 1235265 / 12000000 | TPS 1022.46 | ETA 02:55:28
Time 00:20:20 | Step 1245493 / 12000000 | TPS 1022.7 | ETA 02:55:15
Time 00:20:30 | Step 1255688 / 12000000 | TPS 1019.43 | ETA 02:55:39
Time 00:20:40 | Step 1265954 / 12000000 | TPS 1026.54 | ETA 02:54:16
Time 00:20:50 | Step 1276153 / 12000000 | TPS 1019.87 | ETA 02:55:14
Time 00:21:00 | Step 1286442 / 12000000 | TPS 1028.88 | ETA 02:53:32
Time 00:21:10 | Step 1296671 / 12000000 | TPS 1022.82 | ETA 02:54:24
Time 00:21:20 | Step 1306865 / 12000000 | TPS 1019.31 | ETA 02:54:50
Time 00:21:30 | Step 1317012 / 12000000 | TPS 1014.61 | ETA 02:55:29
Time 00:21:40 | Step 1327251 / 12000000 | TPS 1023.83 | ETA 02:53:44
Time 00:21:50 | Step 1337519 / 12000000 | TPS 1026.7 | ETA 02:53:05
Time 00:22:00 | Step 1347727 / 12000000 | TPS 1020.7 | ETA 02:53:56
Time 00:22:10 | Step 1357981 / 12000000 | TPS 1025.35 | ETA 02:52:58
Time 00:22:20 | Step 1368241 / 12000000 | TPS 1025.98 | ETA 02:52:42
Time 00:22:30 | Step 1378521 / 12000000 | TPS 1027.97 | ETA 02:52:12
Time 00:22:40 | Step 1388748 / 12000000 | TPS 1022.63 | ETA 02:52:56
Time 00:22:50 | Step 1399017 / 12000000 | TPS 1026.81 | ETA 02:52:04
Time 00:23:00 | Step 1409254 / 12000000 | TPS 1023.66 | ETA 02:52:25
Time 00:23:10 | Step 1419518 / 12000000 | TPS 1026.35 | ETA 02:51:48
Time 00:23:20 | Step 1429551 / 12000000 | TPS 1003.21 | ETA 02:55:36
Time 00:23:30 | Step 1439796 / 12000000 | TPS 1024.42 | ETA 02:51:48
Time 00:23:40 | Step 1450050 / 12000000 | TPS 1025.39 | ETA 02:51:28
Time 00:23:50 | Step 1460270 / 12000000 | TPS 1021.87 | ETA 02:51:54
Time 00:24:00 | Step 1470485 / 12000000 | TPS 1021.49 | ETA 02:51:48
Time 00:24:10 | Step 1480767 / 12000000 | TPS 1028.16 | ETA 02:50:31
Time 00:24:20 | Step 1491056 / 12000000 | TPS 1028.8 | ETA 02:50:14
Time 00:24:30 | Step 1501311 / 12000000 | TPS 1025.37 | ETA 02:50:38
Time 00:24:40 | Step 1511600 / 12000000 | TPS 1028.89 | ETA 02:49:53
Time 00:24:50 | Step 1521880 / 12000000 | TPS 1027.99 | ETA 02:49:52
Time 00:25:00 | Step 1532132 / 12000000 | TPS 1025.11 | ETA 02:50:11
Time 00:25:10 | Step 1542373 / 12000000 | TPS 1024.03 | ETA 02:50:12
Time 00:25:20 | Step 1552582 / 12000000 | TPS 1020.81 | ETA 02:50:34
Time 00:25:30 | Step 1562872 / 12000000 | TPS 1028.91 | ETA 02:49:03
Time 00:25:40 | Step 1573175 / 12000000 | TPS 1030.24 | ETA 02:48:40
Time 00:25:50 | Step 1583407 / 12000000 | TPS 1023.15 | ETA 02:49:40
Time 00:26:00 | Step 1593659 / 12000000 | TPS 1025.15 | ETA 02:49:11
Time 00:26:10 | Step 1603871 / 12000000 | TPS 1021.2 | ETA 02:49:40
Time 00:26:20 | Step 1613901 / 12000000 | TPS 1002.98 | ETA 02:52:35
Time 00:26:30 | Step 1624098 / 12000000 | TPS 1019.62 | ETA 02:49:36
Time 00:26:40 | Step 1634311 / 12000000 | TPS 1021.27 | ETA 02:49:09
Time 00:26:50 | Step 1644539 / 12000000 | TPS 1022.76 | ETA 02:48:45
Time 00:27:00 | Step 1654759 / 12000000 | TPS 1021.99 | ETA 02:48:42
Time 00:27:10 | Step 1665011 / 12000000 | TPS 1025.16 | ETA 02:48:01
Time 00:27:20 | Step 1675227 / 12000000 | TPS 1021.57 | ETA 02:48:26
Time 00:27:30 | Step 1685441 / 12000000 | TPS 1021.31 | ETA 02:48:19
Time 00:27:40 | Step 1695660 / 12000000 | TPS 1021.82 | ETA 02:48:04
Time 00:27:50 | Step 1705893 / 12000000 | TPS 1023.27 | ETA 02:47:40
Time 00:28:00 | Step 1716139 / 12000000 | TPS 1024.51 | ETA 02:47:17
Time 00:28:10 | Step 1726338 / 12000000 | TPS 1019.81 | ETA 02:47:54
Time 00:28:20 | Step 1736555 / 12000000 | TPS 1021.62 | ETA 02:47:26
Time 00:28:30 | Step 1746777 / 12000000 | TPS 1022.13 | ETA 02:47:11
Time 00:28:40 | Step 1756990 / 12000000 | TPS 1021.24 | ETA 02:47:10
Time 00:28:50 | Step 1767215 / 12000000 | TPS 1022.38 | ETA 02:46:48
Time 00:29:00 | Step 1777437 / 12000000 | TPS 1022.18 | ETA 02:46:40
Time 00:29:10 | Step 1787631 / 12000000 | TPS 1019.35 | ETA 02:46:58
Time 00:29:20 | Step 1797879 / 12000000 | TPS 1024.75 | ETA 02:45:55
Time 00:29:30 | Step 1808077 / 12000000 | TPS 1019.78 | ETA 02:46:34
Time 00:29:40 | Step 1818293 / 12000000 | TPS 1021.56 | ETA 02:46:06
Time 00:29:50 | Step 1828531 / 12000000 | TPS 1023.78 | ETA 02:45:35
Time 00:30:00 | Step 1838789 / 12000000 | TPS 1025.78 | ETA 02:45:05
Time 00:30:10 | Step 1848996 / 12000000 | TPS 1020.69 | ETA 02:45:45
Time 00:30:20 | Step 1859201 / 12000000 | TPS 1020.46 | ETA 02:45:37
Time 00:30:30 | Step 1869415 / 12000000 | TPS 1021.37 | ETA 02:45:18
Time 00:30:40 | Step 1879642 / 12000000 | TPS 1022.62 | ETA 02:44:56
Time 00:30:50 | Step 1889797 / 12000000 | TPS 1015.45 | ETA 02:45:56
Time 00:31:00 | Step 1900051 / 12000000 | TPS 1025.3 | ETA 02:44:10
Time 00:31:10 | Step 1910264 / 12000000 | TPS 1021.27 | ETA 02:44:39
Time 00:31:20 | Step 1920522 / 12000000 | TPS 1025.8 | ETA 02:43:45
Time 00:31:30 | Step 1930719 / 12000000 | TPS 1019.65 | ETA 02:44:35
Time 00:31:40 | Step 1940900 / 12000000 | TPS 1018.08 | ETA 02:44:40
Time 00:31:50 | Step 1951121 / 12000000 | TPS 1022.1 | ETA 02:43:51
Time 00:32:00 | Step 1961343 / 12000000 | TPS 1022.2 | ETA 02:43:40
Time 00:32:10 | Step 1971587 / 12000000 | TPS 1024.36 | ETA 02:43:09
Time 00:32:20 | Step 1981825 / 12000000 | TPS 1023.76 | ETA 02:43:05
Time 00:32:30 | Step 1992075 / 12000000 | TPS 1024.97 | ETA 02:42:44
Time 00:32:40 | Step 2002272 / 12000000 | TPS 1019.65 | ETA 02:43:25
Time 00:32:50 | Step 2012528 / 12000000 | TPS 1025.53 | ETA 02:42:18
Time 00:33:00 | Step 2022649 / 12000000 | TPS 1012.01 | ETA 02:44:18
Time 00:33:10 | Step 2032905 / 12000000 | TPS 1025.52 | ETA 02:41:59
Time 00:33:20 | Step 2043111 / 12000000 | TPS 1020.55 | ETA 02:42:36
Time 00:33:30 | Step 2053280 / 12000000 | TPS 1016.85 | ETA 02:43:01
Time 00:33:40 | Step 2063480 / 12000000 | TPS 1019.92 | ETA 02:42:22
Time 00:33:50 | Step 2073723 / 12000000 | TPS 1024.24 | ETA 02:41:31
Time 00:34:00 | Step 2083916 / 12000000 | TPS 1019.29 | ETA 02:42:08
Time 00:34:10 | Step 2094139 / 12000000 | TPS 1022.26 | ETA 02:41:30
Time 00:34:20 | Step 2104385 / 12000000 | TPS 1024.59 | ETA 02:40:58
Time 00:34:30 | Step 2114524 / 12000000 | TPS 1013.87 | ETA 02:42:30
Time 00:34:40 | Step 2124742 / 12000000 | TPS 1021.74 | ETA 02:41:05
Time 00:34:50 | Step 2134985 / 12000000 | TPS 1024.28 | ETA 02:40:31
Time 00:35:00 | Step 2145109 / 12000000 | TPS 1012.33 | ETA 02:42:14
Time 00:35:10 | Step 2155181 / 12000000 | TPS 1007.14 | ETA 02:42:55
Time 00:35:20 | Step 2165391 / 12000000 | TPS 1020.99 | ETA 02:40:32
Time 00:35:30 | Step 2175651 / 12000000 | TPS 1025.99 | ETA 02:39:35
Time 00:35:40 | Step 2185890 / 12000000 | TPS 1023.87 | ETA 02:39:45
Time 00:35:50 | Step 2196140 / 12000000 | TPS 1024.97 | ETA 02:39:25
Time 00:36:00 | Step 2206369 / 12000000 | TPS 1022.86 | ETA 02:39:34
Time 00:36:10 | Step 2216535 / 12000000 | TPS 1016.54 | ETA 02:40:24
Time 00:36:20 | Step 2226748 / 12000000 | TPS 1021.22 | ETA 02:39:30
Time 00:36:30 | Step 2236913 / 12000000 | TPS 1016.46 | ETA 02:40:05
Time 00:36:40 | Step 2247125 / 12000000 | TPS 1021.16 | ETA 02:39:10
Time 00:36:50 | Step 2257306 / 12000000 | TPS 1018.1 | ETA 02:39:29
Time 00:37:00 | Step 2267513 / 12000000 | TPS 1020.64 | ETA 02:38:55
Time 00:37:10 | Step 2277723 / 12000000 | TPS 1020.9 | ETA 02:38:43
Time 00:37:20 | Step 2287962 / 12000000 | TPS 1023.85 | ETA 02:38:05
Time 00:37:30 | Step 2298128 / 12000000 | TPS 1016.55 | ETA 02:39:03
Time 00:37:40 | Step 2308298 / 12000000 | TPS 1016.94 | ETA 02:38:50
Time 00:37:50 | Step 2318526 / 12000000 | TPS 1022.75 | ETA 02:37:46
Time 00:38:00 | Step 2328723 / 12000000 | TPS 1019.67 | ETA 02:38:04
Time 00:38:10 | Step 2338967 / 12000000 | TPS 1024.35 | ETA 02:37:11
Time 00:38:20 | Step 2349198 / 12000000 | TPS 1023.03 | ETA 02:37:13
Time 00:38:30 | Step 2359485 / 12000000 | TPS 1028.67 | ETA 02:36:11
Time 00:38:40 | Step 2369706 / 12000000 | TPS 1022.02 | ETA 02:37:02
Time 00:38:50 | Step 2379885 / 12000000 | TPS 1017.87 | ETA 02:37:31
Time 00:39:00 | Step 2390097 / 12000000 | TPS 1021.15 | ETA 02:36:50
Time 00:39:10 | Step 2400352 / 12000000 | TPS 1025.42 | ETA 02:36:01
Time 00:39:20 | Step 2410546 / 12000000 | TPS 1019.38 | ETA 02:36:47
Time 00:39:30 | Step 2420750 / 12000000 | TPS 1020.39 | ETA 02:36:27
Time 00:39:40 | Step 2430959 / 12000000 | TPS 1020.84 | ETA 02:36:13
Time 00:39:50 | Step 2441027 / 12000000 | TPS 1006.72 | ETA 02:38:15
Time 00:40:00 | Step 2451211 / 12000000 | TPS 1018.31 | ETA 02:36:17
Time 00:40:10 | Step 2461465 / 12000000 | TPS 1025.32 | ETA 02:35:03
Time 00:40:20 | Step 2471653 / 12000000 | TPS 1018.73 | ETA 02:35:53
Time 00:40:30 | Step 2481857 / 12000000 | TPS 1020.34 | ETA 02:35:28
Time 00:40:40 | Step 2492063 / 12000000 | TPS 1020.56 | ETA 02:35:16
Time 00:40:50 | Step 2502292 / 12000000 | TPS 1022.89 | ETA 02:34:45
Time 00:41:00 | Step 2512519 / 12000000 | TPS 1022.63 | ETA 02:34:37
Time 00:41:10 | Step 2522739 / 12000000 | TPS 1021.98 | ETA 02:34:33
Time 00:41:20 | Step 2532943 / 12000000 | TPS 1020.31 | ETA 02:34:38
Time 00:41:30 | Step 2543137 / 12000000 | TPS 1019.33 | ETA 02:34:37
Time 00:41:40 | Step 2553323 / 12000000 | TPS 1018.56 | ETA 02:34:34
Time 00:41:50 | Step 2563528 / 12000000 | TPS 1020.45 | ETA 02:34:07
Time 00:42:00 | Step 2573727 / 12000000 | TPS 1019.83 | ETA 02:34:02
Time 00:42:10 | Step 2583928 / 12000000 | TPS 1020.05 | ETA 02:33:50
Time 00:42:20 | Step 2594137 / 12000000 | TPS 1020.81 | ETA 02:33:34
Time 00:42:30 | Step 2604356 / 12000000 | TPS 1021.85 | ETA 02:33:14
Time 00:42:40 | Step 2614538 / 12000000 | TPS 1018.14 | ETA 02:33:38
Time 00:42:50 | Step 2624808 / 12000000 | TPS 1026.97 | ETA 02:32:08
Time 00:43:00 | Step 2635113 / 12000000 | TPS 1030.48 | ETA 02:31:27
Time 00:43:10 | Step 2645387 / 12000000 | TPS 1027.34 | ETA 02:31:45
Time 00:43:20 | Step 2655362 / 12000000 | TPS 997.477 | ETA 02:36:08
Time 00:43:30 | Step 2665689 / 12000000 | TPS 1032.67 | ETA 02:30:39
Time 00:43:40 | Step 2675976 / 12000000 | TPS 1028.64 | ETA 02:31:04
Time 00:43:50 | Step 2686046 / 12000000 | TPS 1006.91 | ETA 02:34:10
Time 00:44:00 | Step 2696376 / 12000000 | TPS 1032.91 | ETA 02:30:07
Time 00:44:10 | Step 2706559 / 12000000 | TPS 1018.21 | ETA 02:32:07
Time 00:44:20 | Step 2716807 / 12000000 | TPS 1024.71 | ETA 02:30:59
Time 00:44:30 | Step 2727048 / 12000000 | TPS 1024.05 | ETA 02:30:55
Time 00:44:40 | Step 2737373 / 12000000 | TPS 1032.44 | ETA 02:29:31
Time 00:44:50 | Step 2747682 / 12000000 | TPS 1030.83 | ETA 02:29:35
Time 00:45:00 | Step 2757927 / 12000000 | TPS 1024.46 | ETA 02:30:21
Time 00:45:10 | Step 2768146 / 12000000 | TPS 1021.88 | ETA 02:30:34
Time 00:45:20 | Step 2778381 / 12000000 | TPS 1023.44 | ETA 02:30:10
Time 00:45:30 | Step 2788589 / 12000000 | TPS 1020.75 | ETA 02:30:24
Time 00:45:40 | Step 2798819 / 12000000 | TPS 1022.97 | ETA 02:29:54
Time 00:45:50 | Step 2809045 / 12000000 | TPS 1022.6 | ETA 02:29:47
Time 00:46:00 | Step 2819271 / 12000000 | TPS 1022.56 | ETA 02:29:38
Time 00:46:10 | Step 2829461 / 12000000 | TPS 1018.95 | ETA 02:29:59
Time 00:46:20 | Step 2839555 / 12000000 | TPS 1009.3 | ETA 02:31:16
Time 00:46:30 | Step 2849738 / 12000000 | TPS 1018.29 | ETA 02:29:45
Time 00:46:40 | Step 2859918 / 12000000 | TPS 1017.96 | ETA 02:29:38
Time 00:46:50 | Step 2870091 / 12000000 | TPS 1017.3 | ETA 02:29:34
Time 00:47:00 | Step 2880266 / 12000000 | TPS 1017.43 | ETA 02:29:23
Time 00:47:10 | Step 2890468 / 12000000 | TPS 1020.19 | ETA 02:28:49
Time 00:47:20 | Step 2900676 / 12000000 | TPS 1020.72 | ETA 02:28:34
Time 00:47:30 | Step 2910818 / 12000000 | TPS 1014.2 | ETA 02:29:21
Time 00:47:40 | Step 2920998 / 12000000 | TPS 1017.98 | ETA 02:28:38
Time 00:47:50 | Step 2931181 / 12000000 | TPS 1018.24 | ETA 02:28:26
Time 00:48:00 | Step 2941399 / 12000000 | TPS 1021.76 | ETA 02:27:45
Time 00:48:10 | Step 2951570 / 12000000 | TPS 1017.07 | ETA 02:28:16
Time 00:48:20 | Step 2961777 / 12000000 | TPS 1020.63 | ETA 02:27:35
Time 00:48:30 | Step 2972003 / 12000000 | TPS 1022.53 | ETA 02:27:09
Time 00:48:40 | Step 2982160 / 12000000 | TPS 1015.66 | ETA 02:27:58
Time 00:48:50 | Step 2992255 / 12000000 | TPS 1009.49 | ETA 02:28:43
Time 00:49:00 | Step 3002437 / 12000000 | TPS 1018.15 | ETA 02:27:17
Time 00:49:10 | Step 3012593 / 12000000 | TPS 1015.53 | ETA 02:27:29
Time 00:49:20 | Step 3022751 / 12000000 | TPS 1015.7 | ETA 02:27:18
Time 00:49:30 | Step 3032863 / 12000000 | TPS 1011.2 | ETA 02:27:47
Time 00:49:40 | Step 3043061 / 12000000 | TPS 1019.76 | ETA 02:26:23
Time 00:49:50 | Step 3053230 / 12000000 | TPS 1016.84 | ETA 02:26:38
Time 00:50:00 | Step 3063364 / 12000000 | TPS 1013.34 | ETA 02:26:58
Time 00:50:10 | Step 3073577 / 12000000 | TPS 1021.23 | ETA 02:25:40
Time 00:50:20 | Step 3083543 / 12000000 | TPS 996.516 | ETA 02:29:07
Time 00:50:30 | Step 3093764 / 12000000 | TPS 1022.03 | ETA 02:25:14
Time 00:50:40 | Step 3103973 / 12000000 | TPS 1020.81 | ETA 02:25:14
Time 00:50:50 | Step 3114205 / 12000000 | TPS 1023.14 | ETA 02:24:44
Time 00:51:00 | Step 3124392 / 12000000 | TPS 1018.67 | ETA 02:25:12
Time 00:51:10 | Step 3134394 / 12000000 | TPS 1000.18 | ETA 02:27:43
Time 00:51:20 | Step 3144557 / 12000000 | TPS 1016.22 | ETA 02:25:14
Time 00:51:30 | Step 3154732 / 12000000 | TPS 1017.45 | ETA 02:24:53
Time 00:51:40 | Step 3164861 / 12000000 | TPS 1012.82 | ETA 02:25:23
Time 00:51:50 | Step 3175065 / 12000000 | TPS 1020.39 | ETA 02:24:08
Time 00:52:00 | Step 3185257 / 12000000 | TPS 1019.11 | ETA 02:24:09
Time 00:52:10 | Step 3195406 / 12000000 | TPS 1014.85 | ETA 02:24:35
Time 00:52:20 | Step 3205577 / 12000000 | TPS 1017.1 | ETA 02:24:06
Time 00:52:30 | Step 3215658 / 12000000 | TPS 1008.06 | ETA 02:25:14
Time 00:52:40 | Step 3225747 / 12000000 | TPS 1008.85 | ETA 02:24:57
Time 00:52:50 | Step 3235537 / 12000000 | TPS 978.94 | ETA 02:29:13
Time 00:53:00 | Step 3245730 / 12000000 | TPS 1019.29 | ETA 02:23:08
Time 00:53:10 | Step 3255876 / 12000000 | TPS 1014.53 | ETA 02:23:38
Time 00:53:20 | Step 3266072 / 12000000 | TPS 1019.55 | ETA 02:22:46
Time 00:53:30 | Step 3276100 / 12000000 | TPS 1002.78 | ETA 02:24:59
Time 00:53:40 | Step 3286127 / 12000000 | TPS 1002.65 | ETA 02:24:50
Time 00:53:50 | Step 3296262 / 12000000 | TPS 1013.49 | ETA 02:23:07
Time 00:54:00 | Step 3306330 / 12000000 | TPS 1006.79 | ETA 02:23:55
Time 00:54:10 | Step 3316511 / 12000000 | TPS 1018.07 | ETA 02:22:09
Time 00:54:20 | Step 3326463 / 12000000 | TPS 995.164 | ETA 02:25:15
Time 00:54:30 | Step 3336667 / 12000000 | TPS 1020.31 | ETA 02:21:30
Time 00:54:40 | Step 3346819 / 12000000 | TPS 1015.18 | ETA 02:22:03
Time 00:54:50 | Step 3356978 / 12000000 | TPS 1015.86 | ETA 02:21:48
Time 00:55:00 | Step 3367049 / 12000000 | TPS 1007.07 | ETA 02:22:52
Time 00:55:10 | Step 3377263 / 12000000 | TPS 1021.31 | ETA 02:20:42
Time 00:55:20 | Step 3387508 / 12000000 | TPS 1024.44 | ETA 02:20:06
Time 00:55:30 | Step 3397628 / 12000000 | TPS 1011.93 | ETA 02:21:40
Time 00:55:40 | Step 3407782 / 12000000 | TPS 1015.37 | ETA 02:21:02
Time 00:55:50 | Step 3417966 / 12000000 | TPS 1018.38 | ETA 02:20:27
Time 00:56:00 | Step 3427963 / 12000000 | TPS 999.676 | ETA 02:22:54
Time 00:56:10 | Step 3438137 / 12000000 | TPS 1017.35 | ETA 02:20:15
Time 00:56:20 | Step 3448323 / 12000000 | TPS 1018.52 | ETA 02:19:56
Time 00:56:30 | Step 3458491 / 12000000 | TPS 1016.74 | ETA 02:20:00
Time 00:56:40 | Step 3468641 / 12000000 | TPS 1014.92 | ETA 02:20:05
Time 00:56:50 | Step 3478844 / 12000000 | TPS 1020.19 | ETA 02:19:12
Time 00:57:00 | Step 3489017 / 12000000 | TPS 1017.28 | ETA 02:19:26
Time 00:57:10 | Step 3499208 / 12000000 | TPS 1019.02 | ETA 02:19:02
Time 00:57:20 | Step 3509430 / 12000000 | TPS 1022.12 | ETA 02:18:26
Time 00:57:30 | Step 3519546 / 12000000 | TPS 1011.58 | ETA 02:19:43
Time 00:57:40 | Step 3529655 / 12000000 | TPS 1010.86 | ETA 02:19:39
Time 00:57:50 | Step 3539853 / 12000000 | TPS 1019.75 | ETA 02:18:16
Time 00:58:00 | Step 3549899 / 12000000 | TPS 1004.55 | ETA 02:20:11
Time 00:58:10 | Step 3560072 / 12000000 | TPS 1017.29 | ETA 02:18:16
Time 00:58:20 | Step 3570234 / 12000000 | TPS 1016.12 | ETA 02:18:16
Time 00:58:30 | Step 3580360 / 12000000 | TPS 1012.55 | ETA 02:18:35
Time 00:58:40 | Step 3590564 / 12000000 | TPS 1020.36 | ETA 02:17:21
Time 00:58:50 | Step 3600708 / 12000000 | TPS 1014.3 | ETA 02:18:00
Time 00:59:00 | Step 3610929 / 12000000 | TPS 1022.07 | ETA 02:16:47
Time 00:59:10 | Step 3621135 / 12000000 | TPS 1020.59 | ETA 02:16:49
Time 00:59:20 | Step 3631173 / 12000000 | TPS 1003.71 | ETA 02:18:57
Time 00:59:30 | Step 3641177 / 12000000 | TPS 1000.4 | ETA 02:19:15
Time 00:59:40 | Step 3651312 / 12000000 | TPS 1013.42 | ETA 02:17:18
Time 00:59:50 | Step 3661521 / 12000000 | TPS 1020.84 | ETA 02:16:08
Time 01:00:00 | Step 3671662 / 12000000 | TPS 1014.09 | ETA 02:16:52
Time 01:00:10 | Step 3681818 / 12000000 | TPS 1015.53 | ETA 02:16:30
Time 01:00:20 | Step 3691990 / 12000000 | TPS 1017.2 | ETA 02:16:07
Time 01:00:30 | Step 3701837 / 12000000 | TPS 984.683 | ETA 02:20:27
Time 01:00:40 | Step 3711900 / 12000000 | TPS 1006.29 | ETA 02:17:16
Time 01:00:50 | Step 3722086 / 12000000 | TPS 1018.56 | ETA 02:15:27
Time 01:01:00 | Step 3732175 / 12000000 | TPS 1008.78 | ETA 02:16:35
Time 01:01:10 | Step 3742385 / 12000000 | TPS 1020.91 | ETA 02:14:48
Time 01:01:20 | Step 3752603 / 12000000 | TPS 1021.75 | ETA 02:14:31
Time 01:01:30 | Step 3762755 / 12000000 | TPS 1015.16 | ETA 02:15:14
Time 01:01:40 | Step 3772945 / 12000000 | TPS 1018.96 | ETA 02:14:33
Time 01:01:50 | Step 3783138 / 12000000 | TPS 1019.28 | ETA 02:14:21
Time 01:02:00 | Step 3793321 / 12000000 | TPS 1018.25 | ETA 02:14:19
Time 01:02:10 | Step 3803528 / 12000000 | TPS 1020.68 | ETA 02:13:50
Time 01:02:20 | Step 3813726 / 12000000 | TPS 1019.74 | ETA 02:13:47
Time 01:02:30 | Step 3823869 / 12000000 | TPS 1014.28 | ETA 02:14:20
Time 01:02:40 | Step 3834038 / 12000000 | TPS 1016.84 | ETA 02:13:50
Time 01:02:50 | Step 3844216 / 12000000 | TPS 1017.75 | ETA 02:13:33
Time 01:03:00 | Step 3854311 / 12000000 | TPS 1009.45 | ETA 02:14:29
Time 01:03:10 | Step 3864406 / 12000000 | TPS 1009.44 | ETA 02:14:19
Time 01:03:20 | Step 3874550 / 12000000 | TPS 1014.3 | ETA 02:13:30
Time 01:03:30 | Step 3884773 / 12000000 | TPS 1022.26 | ETA 02:12:18
Time 01:03:40 | Step 3894861 / 12000000 | TPS 1008.74 | ETA 02:13:54
Time 01:03:50 | Step 3904951 / 12000000 | TPS 1008.92 | ETA 02:13:43
Time 01:04:00 | Step 3915086 / 12000000 | TPS 1013.44 | ETA 02:12:57
Time 01:04:10 | Step 3925265 / 12000000 | TPS 1017.78 | ETA 02:12:13
Time 01:04:20 | Step 3935359 / 12000000 | TPS 1009.38 | ETA 02:13:09
Time 01:04:30 | Step 3945549 / 12000000 | TPS 1018.97 | ETA 02:11:44
Time 01:04:40 | Step 3955680 / 12000000 | TPS 1013.09 | ETA 02:12:20
Time 01:04:50 | Step 3965758 / 12000000 | TPS 1007.79 | ETA 02:12:52
Time 01:05:00 | Step 3975754 / 12000000 | TPS 999.495 | ETA 02:13:48
Time 01:05:10 | Step 3985875 / 12000000 | TPS 1012.01 | ETA 02:11:59
Time 01:05:20 | Step 3996029 / 12000000 | TPS 1015.31 | ETA 02:11:23
Time 01:05:30 | Step 4006197 / 12000000 | TPS 1016.74 | ETA 02:11:02
Time 01:05:40 | Step 4016340 / 12000000 | TPS 1014.28 | ETA 02:11:11
Time 01:05:50 | Step 4026507 / 12000000 | TPS 1016.64 | ETA 02:10:43
Time 01:06:00 | Step 4036699 / 12000000 | TPS 1019.12 | ETA 02:10:13
Time 01:06:10 | Step 4046868 / 12000000 | TPS 1016.89 | ETA 02:10:21
Time 01:06:20 | Step 4057045 / 12000000 | TPS 1017.7 | ETA 02:10:04
Time 01:06:30 | Step 4067245 / 12000000 | TPS 1019.99 | ETA 02:09:37
Time 01:06:40 | Step 4077391 / 12000000 | TPS 1014.49 | ETA 02:10:09
Time 01:06:50 | Step 4087478 / 12000000 | TPS 1008.68 | ETA 02:10:44
Time 01:07:00 | Step 4097420 / 12000000 | TPS 994.138 | ETA 02:12:29
Time 01:07:10 | Step 4107611 / 12000000 | TPS 1019.05 | ETA 02:09:04
Time 01:07:20 | Step 4117792 / 12000000 | TPS 1018.04 | ETA 02:09:02
Time 01:07:30 | Step 4127990 / 12000000 | TPS 1019.76 | ETA 02:08:39
Time 01:07:40 | Step 4137978 / 12000000 | TPS 998.794 | ETA 02:11:11
Time 01:07:50 | Step 4148168 / 12000000 | TPS 1018.97 | ETA 02:08:25
Time 01:08:00 | Step 4158367 / 12000000 | TPS 1019.89 | ETA 02:08:08
Time 01:08:10 | Step 4168528 / 12000000 | TPS 1016.02 | ETA 02:08:28
Time 01:08:20 | Step 4178698 / 12000000 | TPS 1016.91 | ETA 02:08:11
Time 01:08:30 | Step 4188852 / 12000000 | TPS 1015.35 | ETA 02:08:13
Time 01:08:40 | Step 4199025 / 12000000 | TPS 1017.21 | ETA 02:07:49
Time 01:08:50 | Step 4209082 / 12000000 | TPS 1005.6 | ETA 02:09:07
Time 01:09:00 | Step 4219138 / 12000000 | TPS 1005.56 | ETA 02:08:57
Time 01:09:10 | Step 4229330 / 12000000 | TPS 1019.14 | ETA 02:07:04
Time 01:09:20 | Step 4239499 / 12000000 | TPS 1016.9 | ETA 02:07:11
Time 01:09:30 | Step 4249667 / 12000000 | TPS 1016.71 | ETA 02:07:02
Time 01:09:40 | Step 4259768 / 12000000 | TPS 1010.02 | ETA 02:07:43
Time 01:09:50 | Step 4269844 / 12000000 | TPS 1007.59 | ETA 02:07:51
Time 01:10:00 | Step 4279887 / 12000000 | TPS 1004.25 | ETA 02:08:07
Time 01:10:10 | Step 4290080 / 12000000 | TPS 1019.21 | ETA 02:06:04
Time 01:10:20 | Step 4300215 / 12000000 | TPS 1013.5 | ETA 02:06:37
Time 01:10:30 | Step 4310395 / 12000000 | TPS 1017.96 | ETA 02:05:53
Time 01:10:40 | Step 4320534 / 12000000 | TPS 1013.82 | ETA 02:06:14
Time 01:10:50 | Step 4330665 / 12000000 | TPS 1013.01 | ETA 02:06:10
Time 01:11:00 | Step 4340874 / 12000000 | TPS 1020.82 | ETA 02:05:02
Time 01:11:10 | Step 4351043 / 12000000 | TPS 1016.88 | ETA 02:05:21
Time 01:11:20 | Step 4361201 / 12000000 | TPS 1015.73 | ETA 02:05:20
Time 01:11:30 | Step 4371307 / 12000000 | TPS 1010.6 | ETA 02:05:48
Time 01:11:40 | Step 4381451 / 12000000 | TPS 1014.36 | ETA 02:05:10
Time 01:11:50 | Step 4391573 / 12000000 | TPS 1012.07 | ETA 02:05:17
Time 01:12:00 | Step 4401552 / 12000000 | TPS 997.774 | ETA 02:06:55
Time 01:12:10 | Step 4411729 / 12000000 | TPS 1017.69 | ETA 02:04:16
Time 01:12:20 | Step 4421903 / 12000000 | TPS 1017.33 | ETA 02:04:09
Time 01:12:30 | Step 4432021 / 12000000 | TPS 1011.77 | ETA 02:04:39
Time 01:12:40 | Step 4442074 / 12000000 | TPS 1005.21 | ETA 02:05:18
Time 01:12:50 | Step 4452190 / 12000000 | TPS 1011.53 | ETA 02:04:21
Time 01:13:00 | Step 4462341 / 12000000 | TPS 1015.07 | ETA 02:03:45
Time 01:13:10 | Step 4472546 / 12000000 | TPS 1020.42 | ETA 02:02:56
Time 01:13:20 | Step 4482763 / 12000000 | TPS 1021.63 | ETA 02:02:38
Time 01:13:30 | Step 4492868 / 12000000 | TPS 1010.41 | ETA 02:03:49
Time 01:13:40 | Step 4503047 / 12000000 | TPS 1017.87 | ETA 02:02:45
Time 01:13:50 | Step 4513068 / 12000000 | TPS 1002.01 | ETA 02:04:31
Time 01:14:00 | Step 4523218 / 12000000 | TPS 1014.91 | ETA 02:02:46
Time 01:14:10 | Step 4533348 / 12000000 | TPS 1012.94 | ETA 02:02:51
Time 01:14:20 | Step 4543370 / 12000000 | TPS 1002.12 | ETA 02:04:00
Time 01:14:30 | Step 4553432 / 12000000 | TPS 1006.13 | ETA 02:03:21
Time 01:14:40 | Step 4563611 / 12000000 | TPS 1017.86 | ETA 02:01:45
Time 01:14:50 | Step 4573622 / 12000000 | TPS 1001.05 | ETA 02:03:38
Time 01:15:00 | Step 4583661 / 12000000 | TPS 1003.87 | ETA 02:03:07
Time 01:15:10 | Step 4593675 / 12000000 | TPS 1001.38 | ETA 02:03:16
Time 01:15:20 | Step 4603699 / 12000000 | TPS 1002.36 | ETA 02:02:58
Time 01:15:30 | Step 4613789 / 12000000 | TPS 1008.91 | ETA 02:02:00
Time 01:15:40 | Step 4623819 / 12000000 | TPS 1002.97 | ETA 02:02:34
Time 01:15:50 | Step 4633784 / 12000000 | TPS 996.441 | ETA 02:03:12
Time 01:16:00 | Step 4643960 / 12000000 | TPS 1017.52 | ETA 02:00:29
Time 01:16:10 | Step 4654040 / 12000000 | TPS 1007.94 | ETA 02:01:28
Time 01:16:20 | Step 4664139 / 12000000 | TPS 1009.83 | ETA 02:01:04
Time 01:16:30 | Step 4674282 / 12000000 | TPS 1014.25 | ETA 02:00:22
Time 01:16:40 | Step 4684439 / 12000000 | TPS 1015.69 | ETA 02:00:02
Time 01:16:50 | Step 4694532 / 12000000 | TPS 1009.26 | ETA 02:00:38
Time 01:17:00 | Step 4704566 / 12000000 | TPS 1003.36 | ETA 02:01:11
Time 01:17:10 | Step 4714743 / 12000000 | TPS 1017.64 | ETA 01:59:18
Time 01:17:20 | Step 4724915 / 12000000 | TPS 1017.13 | ETA 01:59:12
Time 01:17:30 | Step 4735090 / 12000000 | TPS 1017.45 | ETA 01:59:00
Time 01:17:40 | Step 4745271 / 12000000 | TPS 1018.04 | ETA 01:58:46
Time 01:17:50 | Step 4755462 / 12000000 | TPS 1019.04 | ETA 01:58:29
Time 01:18:00 | Step 4765465 / 12000000 | TPS 1000.25 | ETA 02:00:32
Time 01:18:10 | Step 4775667 / 12000000 | TPS 1020.17 | ETA 01:58:01
Time 01:18:20 | Step 4785805 / 12000000 | TPS 1013.76 | ETA 01:58:36
Time 01:18:30 | Step 4796030 / 12000000 | TPS 1022.47 | ETA 01:57:25
Time 01:18:40 | Step 4806222 / 12000000 | TPS 1019.18 | ETA 01:57:38
Time 01:18:50 | Step 4816407 / 12000000 | TPS 1018.46 | ETA 01:57:33
Time 01:19:00 | Step 4826565 / 12000000 | TPS 1015.75 | ETA 01:57:42
Time 01:19:10 | Step 4836801 / 12000000 | TPS 1023.53 | ETA 01:56:38
Time 01:19:20 | Step 4846974 / 12000000 | TPS 1017.29 | ETA 01:57:11
Time 01:19:30 | Step 4857173 / 12000000 | TPS 1019.85 | ETA 01:56:43
Time 01:19:40 | Step 4867389 / 12000000 | TPS 1021.59 | ETA 01:56:21
Time 01:19:50 | Step 4877609 / 12000000 | TPS 1021.96 | ETA 01:56:09
Time 01:20:00 | Step 4887794 / 12000000 | TPS 1018.42 | ETA 01:56:23
Time 01:20:10 | Step 4897955 / 12000000 | TPS 1016.05 | ETA 01:56:29
Time 01:20:20 | Step 4908087 / 12000000 | TPS 1013.16 | ETA 01:56:39
Time 01:20:30 | Step 4918276 / 12000000 | TPS 1018.84 | ETA 01:55:50
Time 01:20:40 | Step 4928480 / 12000000 | TPS 1020.36 | ETA 01:55:30
Time 01:20:50 | Step 4938656 / 12000000 | TPS 1017.52 | ETA 01:55:39
Time 01:21:00 | Step 4948859 / 12000000 | TPS 1020.29 | ETA 01:55:10
Time 01:21:10 | Step 4958880 / 12000000 | TPS 1002.03 | ETA 01:57:06
Time 01:21:20 | Step 4969030 / 12000000 | TPS 1014.92 | ETA 01:55:27
Time 01:21:30 | Step 4979052 / 12000000 | TPS 1002.18 | ETA 01:56:45
Time 01:21:40 | Step 4989266 / 12000000 | TPS 1021.34 | ETA 01:54:24
Time 01:21:50 | Step 4999455 / 12000000 | TPS 1018.88 | ETA 01:54:30
Time 01:22:00 | Step 5009599 / 12000000 | TPS 1014.33 | ETA 01:54:51
Time 01:22:10 | Step 5019686 / 12000000 | TPS 1008.64 | ETA 01:55:20
Time 01:22:20 | Step 5029882 / 12000000 | TPS 1019.5 | ETA 01:53:56
Time 01:22:30 | Step 5040091 / 12000000 | TPS 1020.8 | ETA 01:53:38
Time 01:22:40 | Step 5050239 / 12000000 | TPS 1014.75 | ETA 01:54:08
Time 01:22:50 | Step 5060295 / 12000000 | TPS 1005.57 | ETA 01:55:01
Time 01:23:00 | Step 5070480 / 12000000 | TPS 1018.41 | ETA 01:53:24
Time 01:23:10 | Step 5080654 / 12000000 | TPS 1017.36 | ETA 01:53:21
Time 01:23:20 | Step 5090853 / 12000000 | TPS 1019.85 | ETA 01:52:54
Time 01:23:30 | Step 5101059 / 12000000 | TPS 1020.51 | ETA 01:52:40
Time 01:23:40 | Step 5111236 / 12000000 | TPS 1017.63 | ETA 01:52:49
Time 01:23:50 | Step 5121414 / 12000000 | TPS 1017.76 | ETA 01:52:38
Time 01:24:00 | Step 5131585 / 12000000 | TPS 1017.08 | ETA 01:52:33
Time 01:24:10 | Step 5141805 / 12000000 | TPS 1021.9 | ETA 01:51:51
Time 01:24:20 | Step 5151973 / 12000000 | TPS 1016.8 | ETA 01:52:14
Time 01:24:30 | Step 5162168 / 12000000 | TPS 1019.44 | ETA 01:51:47
Time 01:24:40 | Step 5172351 / 12000000 | TPS 1018.27 | ETA 01:51:45
Time 01:24:50 | Step 5182613 / 12000000 | TPS 1026.15 | ETA 01:50:43
Time 01:25:00 | Step 5192821 / 12000000 | TPS 1020.73 | ETA 01:51:08
Time 01:25:10 | Step 5202887 / 12000000 | TPS 1006.6 | ETA 01:52:32
Time 01:25:20 | Step 5212973 / 12000000 | TPS 1008.58 | ETA 01:52:09
Time 01:25:30 | Step 5223073 / 12000000 | TPS 1009.92 | ETA 01:51:50
Time 01:25:40 | Step 5233229 / 12000000 | TPS 1015.56 | ETA 01:51:03
Time 01:25:50 | Step 5243447 / 12000000 | TPS 1021.68 | ETA 01:50:13
Time 01:26:00 | Step 5253591 / 12000000 | TPS 1014.31 | ETA 01:50:51
Time 01:26:10 | Step 5263793 / 12000000 | TPS 1020.19 | ETA 01:50:02
Time 01:26:20 | Step 5274041 / 12000000 | TPS 1024.71 | ETA 01:49:23
Time 01:26:30 | Step 5284117 / 12000000 | TPS 1007.53 | ETA 01:51:05
Time 01:26:40 | Step 5294270 / 12000000 | TPS 1015.29 | ETA 01:50:04
Time 01:26:50 | Step 5304430 / 12000000 | TPS 1015.93 | ETA 01:49:50
Time 01:27:00 | Step 5314651 / 12000000 | TPS 1022.1 | ETA 01:49:00
Time 01:27:10 | Step 5324808 / 12000000 | TPS 1015.7 | ETA 01:49:32
Time 01:27:20 | Step 5334811 / 12000000 | TPS 1000.23 | ETA 01:51:03
Time 01:27:30 | Step 5345066 / 12000000 | TPS 1025.47 | ETA 01:48:09
Time 01:27:40 | Step 5355295 / 12000000 | TPS 1022.85 | ETA 01:48:16
Time 01:27:50 | Step 5365503 / 12000000 | TPS 1020.78 | ETA 01:48:19
Time 01:28:00 | Step 5375598 / 12000000 | TPS 1009.47 | ETA 01:49:22
Time 01:28:10 | Step 5385792 / 12000000 | TPS 1019.36 | ETA 01:48:08
Time 01:28:20 | Step 5396013 / 12000000 | TPS 1022.04 | ETA 01:47:41
Time 01:28:30 | Step 5406157 / 12000000 | TPS 1014.37 | ETA 01:48:20
Time 01:28:40 | Step 5416275 / 12000000 | TPS 1011.8 | ETA 01:48:26
Time 01:28:50 | Step 5426175 / 12000000 | TPS 989.927 | ETA 01:50:40
Time 01:29:00 | Step 5436359 / 12000000 | TPS 1018.32 | ETA 01:47:25
Time 01:29:10 | Step 5446577 / 12000000 | TPS 1021.72 | ETA 01:46:54
Time 01:29:20 | Step 5456821 / 12000000 | TPS 1024.31 | ETA 01:46:27
Time 01:29:30 | Step 5467051 / 12000000 | TPS 1022.98 | ETA 01:46:26
Time 01:29:40 | Step 5477287 / 12000000 | TPS 1023.54 | ETA 01:46:12
Time 01:29:50 | Step 5487481 / 12000000 | TPS 1019.32 | ETA 01:46:29
Time 01:30:00 | Step 5497658 / 12000000 | TPS 1017.66 | ETA 01:46:29
Time 01:30:10 | Step 5507808 / 12000000 | TPS 1014.97 | ETA 01:46:36
Time 01:30:20 | Step 5518014 / 12000000 | TPS 1020.59 | ETA 01:45:51
Time 01:30:30 | Step 5528126 / 12000000 | TPS 1011.13 | ETA 01:46:40
Time 01:30:40 | Step 5538340 / 12000000 | TPS 1021.39 | ETA 01:45:26
Time 01:30:50 | Step 5548380 / 12000000 | TPS 1003.99 | ETA 01:47:05
Time 01:31:00 | Step 5558495 / 12000000 | TPS 1011.49 | ETA 01:46:08
Time 01:31:10 | Step 5568701 / 12000000 | TPS 1020.53 | ETA 01:45:01
Time 01:31:20 | Step 5578936 / 12000000 | TPS 1023.46 | ETA 01:44:33
Time 01:31:30 | Step 5589144 / 12000000 | TPS 1020.8 | ETA 01:44:40
Time 01:31:40 | Step 5599404 / 12000000 | TPS 1025.93 | ETA 01:43:58
Time 01:31:50 | Step 5609665 / 12000000 | TPS 1026.1 | ETA 01:43:47
Time 01:32:00 | Step 5619915 / 12000000 | TPS 1024.96 | ETA 01:43:44
Time 01:32:10 | Step 5630207 / 12000000 | TPS 1029.11 | ETA 01:43:09
Time 01:32:20 | Step 5640439 / 12000000 | TPS 1023.2 | ETA 01:43:35
Time 01:32:30 | Step 5650585 / 12000000 | TPS 1014.52 | ETA 01:44:18
Time 01:32:40 | Step 5660820 / 12000000 | TPS 1023.48 | ETA 01:43:13
Time 01:32:50 | Step 5670985 / 12000000 | TPS 1016.43 | ETA 01:43:46
Time 01:33:00 | Step 5681169 / 12000000 | TPS 1018.34 | ETA 01:43:25
Time 01:33:10 | Step 5691316 / 12000000 | TPS 1014.68 | ETA 01:43:37
Time 01:33:20 | Step 5701421 / 12000000 | TPS 1010.44 | ETA 01:43:53
Time 01:33:30 | Step 5711674 / 12000000 | TPS 1025.22 | ETA 01:42:13
Time 01:33:40 | Step 5721865 / 12000000 | TPS 1019.08 | ETA 01:42:40
Time 01:33:50 | Step 5732096 / 12000000 | TPS 1023.08 | ETA 01:42:06
Time 01:34:00 | Step 5742280 / 12000000 | TPS 1018.3 | ETA 01:42:25
Time 01:34:10 | Step 5752511 / 12000000 | TPS 1023.05 | ETA 01:41:46
Time 01:34:20 | Step 5762711 / 12000000 | TPS 1019.92 | ETA 01:41:55
Time 01:34:30 | Step 5772821 / 12000000 | TPS 1010.99 | ETA 01:42:39
Time 01:34:40 | Step 5782925 / 12000000 | TPS 1010.38 | ETA 01:42:33
Time 01:34:50 | Step 5793113 / 12000000 | TPS 1018.72 | ETA 01:41:32
Time 01:35:00 | Step 5803323 / 12000000 | TPS 1020.94 | ETA 01:41:09
Time 01:35:10 | Step 5813448 / 12000000 | TPS 1012.45 | ETA 01:41:50
Time 01:35:20 | Step 5823657 / 12000000 | TPS 1020.88 | ETA 01:40:49
Time 01:35:30 | Step 5833837 / 12000000 | TPS 1017.92 | ETA 01:40:57
Time 01:35:40 | Step 5844052 / 12000000 | TPS 1021.47 | ETA 01:40:26
Time 01:35:50 | Step 5854073 / 12000000 | TPS 1001.98 | ETA 01:42:13
Time 01:36:00 | Step 5864145 / 12000000 | TPS 1007.19 | ETA 01:41:32
Time 01:36:10 | Step 5874278 / 12000000 | TPS 1013.21 | ETA 01:40:45
Time 01:36:20 | Step 5884445 / 12000000 | TPS 1016.62 | ETA 01:40:15
Time 01:36:30 | Step 5894661 / 12000000 | TPS 1021.57 | ETA 01:39:36
Time 01:36:40 | Step 5904807 / 12000000 | TPS 1014.51 | ETA 01:40:08
Time 01:36:50 | Step 5914760 / 12000000 | TPS 995.275 | ETA 01:41:54
Time 01:37:00 | Step 5924935 / 12000000 | TPS 1017.5 | ETA 01:39:30
Time 01:37:10 | Step 5935120 / 12000000 | TPS 1018.45 | ETA 01:39:15
Time 01:37:20 | Step 5945348 / 12000000 | TPS 1022.73 | ETA 01:38:40
Time 01:37:30 | Step 5955493 / 12000000 | TPS 1014.45 | ETA 01:39:18
Time 01:37:40 | Step 5965683 / 12000000 | TPS 1018.93 | ETA 01:38:42
Time 01:37:50 | Step 5975860 / 12000000 | TPS 1017.69 | ETA 01:38:39
Time 01:38:00 | Step 5985884 / 12000000 | TPS 1002.36 | ETA 01:39:59
Time 01:38:10 | Step 5996062 / 12000000 | TPS 1017.77 | ETA 01:38:19
Time 01:38:20 | Step 6006161 / 12000000 | TPS 1009.85 | ETA 01:38:55
Time 01:38:30 | Step 6016355 / 12000000 | TPS 1019.38 | ETA 01:37:49
Time 01:38:40 | Step 6026531 / 12000000 | TPS 1017.54 | ETA 01:37:50
Time 01:38:50 | Step 6036669 / 12000000 | TPS 1013.72 | ETA 01:38:02
Time 01:39:00 | Step 6046809 / 12000000 | TPS 1013.95 | ETA 01:37:51
Time 01:39:10 | Step 6056978 / 12000000 | TPS 1016.83 | ETA 01:37:24
Time 01:39:20 | Step 6067119 / 12000000 | TPS 1014.09 | ETA 01:37:30
Time 01:39:30 | Step 6077300 / 12000000 | TPS 1018.04 | ETA 01:36:57
Time 01:39:40 | Step 6087468 / 12000000 | TPS 1016.76 | ETA 01:36:55
Time 01:39:50 | Step 6097673 / 12000000 | TPS 1020.47 | ETA 01:36:23
Time 01:40:00 | Step 6107775 / 12000000 | TPS 1010.19 | ETA 01:37:12
Time 01:40:10 | Step 6117977 / 12000000 | TPS 1020.16 | ETA 01:36:05
Time 01:40:20 | Step 6128086 / 12000000 | TPS 1010.81 | ETA 01:36:49
Time 01:40:30 | Step 6138227 / 12000000 | TPS 1014.08 | ETA 01:36:20
Time 01:40:40 | Step 6148397 / 12000000 | TPS 1016.9 | ETA 01:35:54
Time 01:40:50 | Step 6158592 / 12000000 | TPS 1019.44 | ETA 01:35:30
Time 01:41:00 | Step 6168754 / 12000000 | TPS 1016.2 | ETA 01:35:38
Time 01:41:10 | Step 6178963 / 12000000 | TPS 1020.85 | ETA 01:35:02
Time 01:41:20 | Step 6189137 / 12000000 | TPS 1017.39 | ETA 01:35:11
Time 01:41:30 | Step 6199296 / 12000000 | TPS 1015.88 | ETA 01:35:10
Time 01:41:40 | Step 6209511 / 12000000 | TPS 1021.48 | ETA 01:34:28
Time 01:41:50 | Step 6219704 / 12000000 | TPS 1019.27 | ETA 01:34:31
Time 01:42:00 | Step 6229915 / 12000000 | TPS 1021.02 | ETA 01:34:11
Time 01:42:10 | Step 6240032 / 12000000 | TPS 1011.67 | ETA 01:34:53
Time 01:42:20 | Step 6250186 / 12000000 | TPS 1015.36 | ETA 01:34:22
Time 01:42:30 | Step 6260314 / 12000000 | TPS 1012.74 | ETA 01:34:27
Time 01:42:40 | Step 6270517 / 12000000 | TPS 1020.27 | ETA 01:33:35
Time 01:42:50 | Step 6280636 / 12000000 | TPS 1011.81 | ETA 01:34:12
Time 01:43:00 | Step 6290833 / 12000000 | TPS 1019.7 | ETA 01:33:18
Time 01:43:10 | Step 6301057 / 12000000 | TPS 1022.31 | ETA 01:32:54
Time 01:43:20 | Step 6311210 / 12000000 | TPS 1015.29 | ETA 01:33:23
Time 01:43:30 | Step 6321408 / 12000000 | TPS 1019.77 | ETA 01:32:48
Time 01:43:40 | Step 6331557 / 12000000 | TPS 1014.89 | ETA 01:33:05
Time 01:43:50 | Step 6341666 / 12000000 | TPS 1010.83 | ETA 01:33:17
Time 01:44:00 | Step 6351827 / 12000000 | TPS 1016.09 | ETA 01:32:38
Time 01:44:10 | Step 6361989 / 12000000 | TPS 1016.13 | ETA 01:32:28
Time 01:44:20 | Step 6372046 / 12000000 | TPS 1005.61 | ETA 01:33:16
Time 01:44:30 | Step 6382238 / 12000000 | TPS 1019.13 | ETA 01:31:52
Time 01:44:40 | Step 6392300 / 12000000 | TPS 1006.12 | ETA 01:32:53
Time 01:44:50 | Step 6402504 / 12000000 | TPS 1020.32 | ETA 01:31:26
Time 01:45:00 | Step 6412556 / 12000000 | TPS 1005.14 | ETA 01:32:38
Time 01:45:10 | Step 6422736 / 12000000 | TPS 1017.93 | ETA 01:31:19
Time 01:45:20 | Step 6432911 / 12000000 | TPS 1017.47 | ETA 01:31:11
Time 01:45:30 | Step 6443075 / 12000000 | TPS 1016.33 | ETA 01:31:07
Time 01:45:40 | Step 6453255 / 12000000 | TPS 1017.96 | ETA 01:30:48
Time 01:45:50 | Step 6463464 / 12000000 | TPS 1020.82 | ETA 01:30:23
Time 01:46:00 | Step 6473553 / 12000000 | TPS 1008.83 | ETA 01:31:18
Time 01:46:10 | Step 6483683 / 12000000 | TPS 1012.93 | ETA 01:30:45
Time 01:46:20 | Step 6493854 / 12000000 | TPS 1017.03 | ETA 01:30:13
Time 01:46:30 | Step 6504066 / 12000000 | TPS 1021.18 | ETA 01:29:41
Time 01:46:40 | Step 6514245 / 12000000 | TPS 1017.81 | ETA 01:29:49
Time 01:46:50 | Step 6524417 / 12000000 | TPS 1017.19 | ETA 01:29:43
Time 01:47:00 | Step 6534600 / 12000000 | TPS 1018.23 | ETA 01:29:27
Time 01:47:10 | Step 6544696 / 12000000 | TPS 1009.6 | ETA 01:30:03
Time 01:47:20 | Step 6554908 / 12000000 | TPS 1021.12 | ETA 01:28:52
Time 01:47:30 | Step 6565002 / 12000000 | TPS 1009.37 | ETA 01:29:44
Time 01:47:40 | Step 6575181 / 12000000 | TPS 1017.9 | ETA 01:28:49
Time 01:47:50 | Step 6585376 / 12000000 | TPS 1019.41 | ETA 01:28:31
Time 01:48:00 | Step 6595561 / 12000000 | TPS 1018.41 | ETA 01:28:26
Time 01:48:10 | Step 6605730 / 12000000 | TPS 1016.8 | ETA 01:28:25
Time 01:48:20 | Step 6615921 / 12000000 | TPS 1019 | ETA 01:28:03
Time 01:48:30 | Step 6626105 / 12000000 | TPS 1018.37 | ETA 01:27:56
Time 01:48:40 | Step 6636157 / 12000000 | TPS 1005.11 | ETA 01:28:56
Time 01:48:50 | Step 6646333 / 12000000 | TPS 1017.55 | ETA 01:27:41
Time 01:49:00 | Step 6656332 / 12000000 | TPS 999.816 | ETA 01:29:04
Time 01:49:10 | Step 6666404 / 12000000 | TPS 1007.15 | ETA 01:28:15
Time 01:49:20 | Step 6676592 / 12000000 | TPS 1018.79 | ETA 01:27:05
Time 01:49:30 | Step 6686814 / 12000000 | TPS 1022.12 | ETA 01:26:38
Time 01:49:40 | Step 6696961 / 12000000 | TPS 1014.61 | ETA 01:27:06
Time 01:49:50 | Step 6707180 / 12000000 | TPS 1021.88 | ETA 01:26:19
Time 01:50:00 | Step 6717362 / 12000000 | TPS 1018.11 | ETA 01:26:28
Time 01:50:10 | Step 6727558 / 12000000 | TPS 1019.52 | ETA 01:26:11
Time 01:50:20 | Step 6737632 / 12000000 | TPS 1007.39 | ETA 01:27:03
Time 01:50:30 | Step 6747791 / 12000000 | TPS 1015.83 | ETA 01:26:10
Time 01:50:40 | Step 6757944 / 12000000 | TPS 1015.23 | ETA 01:26:03
Time 01:50:50 | Step 6768123 / 12000000 | TPS 1017.87 | ETA 01:25:40
Time 01:51:00 | Step 6778272 / 12000000 | TPS 1014.82 | ETA 01:25:45
Time 01:51:10 | Step 6788408 / 12000000 | TPS 1013.57 | ETA 01:25:41
Time 01:51:20 | Step 6798619 / 12000000 | TPS 1021.02 | ETA 01:24:54
Time 01:51:30 | Step 6808814 / 12000000 | TPS 1019.4 | ETA 01:24:52
Time 01:51:40 | Step 6818957 / 12000000 | TPS 1014.28 | ETA 01:25:08
Time 01:51:50 | Step 6829129 / 12000000 | TPS 1017.13 | ETA 01:24:43
Time 01:52:00 | Step 6839285 / 12000000 | TPS 1015.6 | ETA 01:24:41
Time 01:52:10 | Step 6849353 / 12000000 | TPS 1006.71 | ETA 01:25:16
Time 01:52:20 | Step 6859456 / 12000000 | TPS 1010.22 | ETA 01:24:48
Time 01:52:30 | Step 6869529 / 12000000 | TPS 1007.27 | ETA 01:24:53
Time 01:52:40 | Step 6879755 / 12000000 | TPS 1022.54 | ETA 01:23:27
Time 01:52:50 | Step 6889915 / 12000000 | TPS 1015.98 | ETA 01:23:49
Time 01:53:00 | Step 6900121 / 12000000 | TPS 1020.51 | ETA 01:23:17
Time 01:53:10 | Step 6910302 / 12000000 | TPS 1018.07 | ETA 01:23:19
Time 01:53:20 | Step 6920430 / 12000000 | TPS 1012.77 | ETA 01:23:35
Time 01:53:30 | Step 6930570 / 12000000 | TPS 1013.93 | ETA 01:23:19
Time 01:53:40 | Step 6940699 / 12000000 | TPS 1012.83 | ETA 01:23:15
Time 01:53:50 | Step 6950858 / 12000000 | TPS 1015.87 | ETA 01:22:50
Time 01:54:00 | Step 6960983 / 12000000 | TPS 1012.48 | ETA 01:22:56
Time 01:54:10 | Step 6971222 / 12000000 | TPS 1023.88 | ETA 01:21:51
Time 01:54:20 | Step 6981332 / 12000000 | TPS 1010.92 | ETA 01:22:44
Time 01:54:30 | Step 6991482 / 12000000 | TPS 1014.99 | ETA 01:22:14
Time 01:54:40 | Step 7001639 / 12000000 | TPS 1015.7 | ETA 01:22:01
Time 01:54:50 | Step 7011846 / 12000000 | TPS 1020.67 | ETA 01:21:27
Time 01:55:00 | Step 7022002 / 12000000 | TPS 1015.6 | ETA 01:21:41
Time 01:55:10 | Step 7032113 / 12000000 | TPS 1011.05 | ETA 01:21:53
Time 01:55:20 | Step 7042190 / 12000000 | TPS 1007.7 | ETA 01:21:59
Time 01:55:30 | Step 7052368 / 12000000 | TPS 1017.71 | ETA 01:21:01
Time 01:55:40 | Step 7062600 / 12000000 | TPS 1023.16 | ETA 01:20:25
Time 01:55:50 | Step 7072834 / 12000000 | TPS 1023.4 | ETA 01:20:14
Time 01:56:00 | Step 7083045 / 12000000 | TPS 1021.03 | ETA 01:20:15
Time 01:56:10 | Step 7093226 / 12000000 | TPS 1018.06 | ETA 01:20:19
Time 01:56:20 | Step 7103457 / 12000000 | TPS 1023.09 | ETA 01:19:46
Time 01:56:30 | Step 7113656 / 12000000 | TPS 1019.87 | ETA 01:19:51
Time 01:56:40 | Step 7123847 / 12000000 | TPS 1019.1 | ETA 01:19:44
Time 01:56:50 | Step 7134022 / 12000000 | TPS 1017.47 | ETA 01:19:42
Time 01:57:00 | Step 7144203 / 12000000 | TPS 1018.01 | ETA 01:19:29
Time 01:57:10 | Step 7154097 / 12000000 | TPS 989.379 | ETA 01:21:37
Time 01:57:20 | Step 7164276 / 12000000 | TPS 1017.87 | ETA 01:19:10
Time 01:57:30 | Step 7174378 / 12000000 | TPS 1010.15 | ETA 01:19:37
Time 01:57:40 | Step 7184498 / 12000000 | TPS 1011.91 | ETA 01:19:18
Time 01:57:50 | Step 7194583 / 12000000 | TPS 1008.47 | ETA 01:19:25
Time 01:58:00 | Step 7204766 / 12000000 | TPS 1018.25 | ETA 01:18:29
Time 01:58:10 | Step 7214918 / 12000000 | TPS 1015.19 | ETA 01:18:33
Time 01:58:20 | Step 7224922 / 12000000 | TPS 1000.38 | ETA 01:19:33
Time 01:58:30 | Step 7235096 / 12000000 | TPS 1017.36 | ETA 01:18:03
Time 01:58:40 | Step 7245209 / 12000000 | TPS 1011.23 | ETA 01:18:21
Time 01:58:50 | Step 7255389 / 12000000 | TPS 1017.95 | ETA 01:17:40
Time 01:59:00 | Step 7265472 / 12000000 | TPS 1008.25 | ETA 01:18:15
Time 01:59:10 | Step 7275645 / 12000000 | TPS 1017.24 | ETA 01:17:24
Time 01:59:20 | Step 7285707 / 12000000 | TPS 1006.12 | ETA 01:18:05
Time 01:59:30 | Step 7295692 / 12000000 | TPS 998.489 | ETA 01:18:31
Time 01:59:40 | Step 7305906 / 12000000 | TPS 1021.37 | ETA 01:16:35
Time 01:59:50 | Step 7316121 / 12000000 | TPS 1021.5 | ETA 01:16:25
Time 02:00:00 | Step 7326314 / 12000000 | TPS 1019.21 | ETA 01:16:25
Time 02:00:10 | Step 7336447 / 12000000 | TPS 1013.21 | ETA 01:16:42
Time 02:00:20 | Step 7346646 / 12000000 | TPS 1019.84 | ETA 01:16:02
Time 02:00:30 | Step 7356633 / 12000000 | TPS 998.684 | ETA 01:17:29
Time 02:00:40 | Step 7366807 / 12000000 | TPS 1017.33 | ETA 01:15:54
Time 02:00:50 | Step 7376960 / 12000000 | TPS 1015.29 | ETA 01:15:53
Time 02:01:00 | Step 7387172 / 12000000 | TPS 1021.11 | ETA 01:15:17
Time 02:01:10 | Step 7397284 / 12000000 | TPS 1011.13 | ETA 01:15:52
Time 02:01:20 | Step 7407434 / 12000000 | TPS 1014.92 | ETA 01:15:25
Time 02:01:30 | Step 7417628 / 12000000 | TPS 1019.37 | ETA 01:14:55
Time 02:01:40 | Step 7427794 / 12000000 | TPS 1016.59 | ETA 01:14:57
Time 02:01:50 | Step 7437976 / 12000000 | TPS 1018.19 | ETA 01:14:40
Time 02:02:00 | Step 7448138 / 12000000 | TPS 1016.14 | ETA 01:14:39
Time 02:02:10 | Step 7458322 / 12000000 | TPS 1018.37 | ETA 01:14:19
Time 02:02:20 | Step 7468556 / 12000000 | TPS 1023.34 | ETA 01:13:48
Time 02:02:30 | Step 7478776 / 12000000 | TPS 1021.95 | ETA 01:13:44
Time 02:02:40 | Step 7488975 / 12000000 | TPS 1019.81 | ETA 01:13:43
Time 02:02:50 | Step 7499076 / 12000000 | TPS 1010.09 | ETA 01:14:15
Time 02:03:00 | Step 7509244 / 12000000 | TPS 1016.78 | ETA 01:13:36
Time 02:03:10 | Step 7519422 / 12000000 | TPS 1017.76 | ETA 01:13:22
Time 02:03:20 | Step 7529542 / 12000000 | TPS 1011.92 | ETA 01:13:37
Time 02:03:30 | Step 7539729 / 12000000 | TPS 1018.6 | ETA 01:12:58
Time 02:03:40 | Step 7549808 / 12000000 | TPS 1007.84 | ETA 01:13:35
Time 02:03:50 | Step 7560008 / 12000000 | TPS 1019.97 | ETA 01:12:33
Time 02:04:00 | Step 7570152 / 12000000 | TPS 1014.3 | ETA 01:12:47
Time 02:04:10 | Step 7580329 / 12000000 | TPS 1017.63 | ETA 01:12:23
Time 02:04:20 | Step 7590533 / 12000000 | TPS 1020.33 | ETA 01:12:01
Time 02:04:30 | Step 7600740 / 12000000 | TPS 1020.64 | ETA 01:11:50
Time 02:04:40 | Step 7610815 / 12000000 | TPS 1007.46 | ETA 01:12:36
Time 02:04:50 | Step 7621017 / 12000000 | TPS 1020.19 | ETA 01:11:32
Time 02:05:00 | Step 7631115 / 12000000 | TPS 1009.77 | ETA 01:12:06
Time 02:05:10 | Step 7641285 / 12000000 | TPS 1016.95 | ETA 01:11:26
Time 02:05:20 | Step 7651490 / 12000000 | TPS 1020.41 | ETA 01:11:01
Time 02:05:30 | Step 7661600 / 12000000 | TPS 1010.93 | ETA 01:11:31
Time 02:05:40 | Step 7671788 / 12000000 | TPS 1018.77 | ETA 01:10:48
Time 02:05:50 | Step 7681931 / 12000000 | TPS 1014.26 | ETA 01:10:57
Time 02:06:00 | Step 7692021 / 12000000 | TPS 1008.9 | ETA 01:11:09
Time 02:06:10 | Step 7702199 / 12000000 | TPS 1017.73 | ETA 01:10:22
Time 02:06:20 | Step 7712341 / 12000000 | TPS 1014.17 | ETA 01:10:27
Time 02:06:30 | Step 7722569 / 12000000 | TPS 1022.71 | ETA 01:09:42
Time 02:06:40 | Step 7732820 / 12000000 | TPS 1025.05 | ETA 01:09:22
Time 02:06:50 | Step 7743057 / 12000000 | TPS 1023.67 | ETA 01:09:18
Time 02:07:00 | Step 7753257 / 12000000 | TPS 1019.92 | ETA 01:09:23
Time 02:07:10 | Step 7763385 / 12000000 | TPS 1012.73 | ETA 01:09:43
Time 02:07:20 | Step 7773589 / 12000000 | TPS 1020.3 | ETA 01:09:02
Time 02:07:30 | Step 7783710 / 12000000 | TPS 1012.03 | ETA 01:09:26
Time 02:07:40 | Step 7793903 / 12000000 | TPS 1019.27 | ETA 01:08:46
Time 02:07:50 | Step 7804144 / 12000000 | TPS 1024.01 | ETA 01:08:17
Time 02:08:00 | Step 7814317 / 12000000 | TPS 1017.26 | ETA 01:08:34
Time 02:08:10 | Step 7824325 / 12000000 | TPS 1000.72 | ETA 01:09:32
Time 02:08:20 | Step 7834556 / 12000000 | TPS 1023.1 | ETA 01:07:51
Time 02:08:30 | Step 7844726 / 12000000 | TPS 1016.95 | ETA 01:08:06
Time 02:08:40 | Step 7854917 / 12000000 | TPS 1019.07 | ETA 01:07:47
Time 02:08:50 | Step 7865115 / 12000000 | TPS 1019.77 | ETA 01:07:34
Time 02:09:00 | Step 7875288 / 12000000 | TPS 1017.23 | ETA 01:07:34
Time 02:09:10 | Step 7885501 / 12000000 | TPS 1021.28 | ETA 01:07:08
Time 02:09:20 | Step 7895600 / 12000000 | TPS 1009.85 | ETA 01:07:44
Time 02:09:30 | Step 7905781 / 12000000 | TPS 1018.04 | ETA 01:07:01
Time 02:09:40 | Step 7915930 / 12000000 | TPS 1014.86 | ETA 01:07:04
Time 02:09:50 | Step 7926086 / 12000000 | TPS 1015.55 | ETA 01:06:51
Time 02:10:00 | Step 7936214 / 12000000 | TPS 1012.76 | ETA 01:06:52
Time 02:10:10 | Step 7946090 / 12000000 | TPS 987.579 | ETA 01:08:24
Time 02:10:20 | Step 7956271 / 12000000 | TPS 1018.05 | ETA 01:06:12
Time 02:10:30 | Step 7966453 / 12000000 | TPS 1018.11 | ETA 01:06:01
Time 02:10:40 | Step 7976621 / 12000000 | TPS 1016.72 | ETA 01:05:57
Time 02:10:50 | Step 7986731 / 12000000 | TPS 1010.9 | ETA 01:06:09
Time 02:11:00 | Step 7996896 / 12000000 | TPS 1016.49 | ETA 01:05:38
Time 02:11:10 | Step 8007055 / 12000000 | TPS 1015.88 | ETA 01:05:30
Time 02:11:20 | Step 8017209 / 12000000 | TPS 1015.36 | ETA 01:05:22
Time 02:11:30 | Step 8027372 / 12000000 | TPS 1016.25 | ETA 01:05:09
Time 02:11:40 | Step 8037568 / 12000000 | TPS 1019.54 | ETA 01:04:46
Time 02:11:50 | Step 8047776 / 12000000 | TPS 1020.8 | ETA 01:04:31
Time 02:12:00 | Step 8057979 / 12000000 | TPS 1020.27 | ETA 01:04:23
Time 02:12:10 | Step 8068165 / 12000000 | TPS 1018.54 | ETA 01:04:20
Time 02:12:20 | Step 8078378 / 12000000 | TPS 1021.24 | ETA 01:04:00
Time 02:12:30 | Step 8088572 / 12000000 | TPS 1019.36 | ETA 01:03:57
Time 02:12:40 | Step 8098797 / 12000000 | TPS 1022.45 | ETA 01:03:35
Time 02:12:50 | Step 8108953 / 12000000 | TPS 1015.51 | ETA 01:03:51
Time 02:13:00 | Step 8119136 / 12000000 | TPS 1018.26 | ETA 01:03:31
Time 02:13:10 | Step 8129278 / 12000000 | TPS 1014.14 | ETA 01:03:36
Time 02:13:20 | Step 8139380 / 12000000 | TPS 1010.11 | ETA 01:03:41
Time 02:13:30 | Step 8149596 / 12000000 | TPS 1021.57 | ETA 01:02:49
Time 02:13:40 | Step 8159794 / 12000000 | TPS 1019.75 | ETA 01:02:45
Time 02:13:50 | Step 8169827 / 12000000 | TPS 1003.2 | ETA 01:03:37
Time 02:14:00 | Step 8180004 / 12000000 | TPS 1017.64 | ETA 01:02:33
Time 02:14:10 | Step 8190182 / 12000000 | TPS 1017.75 | ETA 01:02:23
Time 02:14:20 | Step 8200383 / 12000000 | TPS 1020.04 | ETA 01:02:04
Time 02:14:30 | Step 8210482 / 12000000 | TPS 1009.83 | ETA 01:02:32
Time 02:14:40 | Step 8220518 / 12000000 | TPS 1003.57 | ETA 01:02:46
Time 02:14:50 | Step 8230721 / 12000000 | TPS 1020.27 | ETA 01:01:34
Time 02:15:00 | Step 8240890 / 12000000 | TPS 1016.89 | ETA 01:01:36
Time 02:15:10 | Step 8251049 / 12000000 | TPS 1015.85 | ETA 01:01:30
Time 02:15:20 | Step 8261212 / 12000000 | TPS 1016.3 | ETA 01:01:18
Time 02:15:30 | Step 8271428 / 12000000 | TPS 1021.57 | ETA 01:00:49
Time 02:15:40 | Step 8281594 / 12000000 | TPS 1016.52 | ETA 01:00:57
Time 02:15:50 | Step 8291701 / 12000000 | TPS 1010.64 | ETA 01:01:09
Time 02:16:00 | Step 8301903 / 12000000 | TPS 1020.14 | ETA 01:00:25
Time 02:16:10 | Step 8312106 / 12000000 | TPS 1020.25 | ETA 01:00:14
Time 02:16:20 | Step 8322233 / 12000000 | TPS 1012.65 | ETA 01:00:31
Time 02:16:30 | Step 8332464 / 12000000 | TPS 1023.04 | ETA 00:59:44
Time 02:16:40 | Step 8342645 / 12000000 | TPS 1018.02 | ETA 00:59:52
Time 02:16:50 | Step 8352648 / 12000000 | TPS 1000.26 | ETA 01:00:46
Time 02:17:00 | Step 8362834 / 12000000 | TPS 1018.52 | ETA 00:59:31
Time 02:17:10 | Step 8373055 / 12000000 | TPS 1022.02 | ETA 00:59:08
Time 02:17:20 | Step 8383226 / 12000000 | TPS 1017.05 | ETA 00:59:16
Time 02:17:30 | Step 8393442 / 12000000 | TPS 1021.51 | ETA 00:58:50
Time 02:17:40 | Step 8403615 / 12000000 | TPS 1017.26 | ETA 00:58:55
Time 02:17:50 | Step 8413811 / 12000000 | TPS 1019.55 | ETA 00:58:37
Time 02:18:00 | Step 8423939 / 12000000 | TPS 1012.78 | ETA 00:58:50
Time 02:18:10 | Step 8434119 / 12000000 | TPS 1017.95 | ETA 00:58:23
Time 02:18:20 | Step 8444287 / 12000000 | TPS 1016.78 | ETA 00:58:17
Time 02:18:30 | Step 8454482 / 12000000 | TPS 1019.46 | ETA 00:57:57
Time 02:18:40 | Step 8464629 / 12000000 | TPS 1014.68 | ETA 00:58:04
Time 02:18:50 | Step 8474694 / 12000000 | TPS 1006.46 | ETA 00:58:22
Time 02:19:00 | Step 8484744 / 12000000 | TPS 1005 | ETA 00:58:17
Time 02:19:10 | Step 8494939 / 12000000 | TPS 1019.41 | ETA 00:57:18
Time 02:19:20 | Step 8505022 / 12000000 | TPS 1008.21 | ETA 00:57:46
Time 02:19:30 | Step 8515215 / 12000000 | TPS 1019.2 | ETA 00:56:59
Time 02:19:40 | Step 8525432 / 12000000 | TPS 1021.63 | ETA 00:56:40
Time 02:19:50 | Step 8535614 / 12000000 | TPS 1018.17 | ETA 00:56:42
Time 02:20:00 | Step 8545855 / 12000000 | TPS 1024.06 | ETA 00:56:12
Time 02:20:10 | Step 8555958 / 12000000 | TPS 1010.28 | ETA 00:56:49
Time 02:20:20 | Step 8565840 / 12000000 | TPS 988.122 | ETA 00:57:55
Time 02:20:30 | Step 8576069 / 12000000 | TPS 1022.87 | ETA 00:55:47
Time 02:20:40 | Step 8586226 / 12000000 | TPS 1015.62 | ETA 00:56:01
Time 02:20:50 | Step 8596258 / 12000000 | TPS 1003.16 | ETA 00:56:33
Time 02:21:00 | Step 8606429 / 12000000 | TPS 1017.08 | ETA 00:55:36
Time 02:21:10 | Step 8616571 / 12000000 | TPS 1014.16 | ETA 00:55:36
Time 02:21:20 | Step 8626760 / 12000000 | TPS 1018.89 | ETA 00:55:10
Time 02:21:30 | Step 8636954 / 12000000 | TPS 1019.32 | ETA 00:54:59
Time 02:21:40 | Step 8647121 / 12000000 | TPS 1016.68 | ETA 00:54:57
Time 02:21:50 | Step 8657332 / 12000000 | TPS 1021.05 | ETA 00:54:33
Time 02:22:00 | Step 8667383 / 12000000 | TPS 1005.09 | ETA 00:55:15
Time 02:22:10 | Step 8677565 / 12000000 | TPS 1018.17 | ETA 00:54:23
Time 02:22:20 | Step 8687760 / 12000000 | TPS 1019.42 | ETA 00:54:09
Time 02:22:30 | Step 8697931 / 12000000 | TPS 1017.05 | ETA 00:54:06
Time 02:22:40 | Step 8707966 / 12000000 | TPS 1003.44 | ETA 00:54:40
Time 02:22:50 | Step 8718146 / 12000000 | TPS 1017.99 | ETA 00:53:43
Time 02:23:00 | Step 8728364 / 12000000 | TPS 1021.73 | ETA 00:53:22
Time 02:23:10 | Step 8738349 / 12000000 | TPS 998.422 | ETA 00:54:26
Time 02:23:20 | Step 8748541 / 12000000 | TPS 1019.18 | ETA 00:53:10
Time 02:23:30 | Step 8758699 / 12000000 | TPS 1015.75 | ETA 00:53:11
Time 02:23:40 | Step 8768814 / 12000000 | TPS 1011.47 | ETA 00:53:14
Time 02:23:50 | Step 8778982 / 12000000 | TPS 1016.78 | ETA 00:52:47
Time 02:24:00 | Step 8789183 / 12000000 | TPS 1020.07 | ETA 00:52:27
Time 02:24:10 | Step 8799372 / 12000000 | TPS 1018.86 | ETA 00:52:21
Time 02:24:20 | Step 8809542 / 12000000 | TPS 1016.95 | ETA 00:52:17
Time 02:24:30 | Step 8819687 / 12000000 | TPS 1014.47 | ETA 00:52:14
Time 02:24:40 | Step 8829862 / 12000000 | TPS 1017.48 | ETA 00:51:55
Time 02:24:50 | Step 8840040 / 12000000 | TPS 1017.72 | ETA 00:51:44
Time 02:25:00 | Step 8850211 / 12000000 | TPS 1017.03 | ETA 00:51:37
Time 02:25:10 | Step 8860421 / 12000000 | TPS 1020.96 | ETA 00:51:15
Time 02:25:20 | Step 8870570 / 12000000 | TPS 1014.88 | ETA 00:51:23
Time 02:25:30 | Step 8880750 / 12000000 | TPS 1017.95 | ETA 00:51:04
Time 02:25:40 | Step 8890954 / 12000000 | TPS 1020.31 | ETA 00:50:47
Time 02:25:50 | Step 8901073 / 12000000 | TPS 1011.89 | ETA 00:51:02
Time 02:26:00 | Step 8911291 / 12000000 | TPS 1021.78 | ETA 00:50:22
Time 02:26:10 | Step 8921499 / 12000000 | TPS 1020.75 | ETA 00:50:15
Time 02:26:20 | Step 8931701 / 12000000 | TPS 1020.19 | ETA 00:50:07
Time 02:26:30 | Step 8941826 / 12000000 | TPS 1012.43 | ETA 00:50:20
Time 02:26:40 | Step 8951997 / 12000000 | TPS 1017.04 | ETA 00:49:56
Time 02:26:50 | Step 8962176 / 12000000 | TPS 1017.88 | ETA 00:49:44
Time 02:27:00 | Step 8972387 / 12000000 | TPS 1021.05 | ETA 00:49:25
Time 02:27:10 | Step 8982559 / 12000000 | TPS 1017.12 | ETA 00:49:26
Time 02:27:20 | Step 8992730 / 12000000 | TPS 1017.07 | ETA 00:49:16
Time 02:27:30 | Step 9002622 / 12000000 | TPS 989.163 | ETA 00:50:30
Time 02:27:40 | Step 9012821 / 12000000 | TPS 1019.86 | ETA 00:48:49
Time 02:27:50 | Step 9023025 / 12000000 | TPS 1020.4 | ETA 00:48:37
Time 02:28:00 | Step 9033198 / 12000000 | TPS 1017.3 | ETA 00:48:36
Time 02:28:10 | Step 9043389 / 12000000 | TPS 1019.03 | ETA 00:48:21
Time 02:28:20 | Step 9053608 / 12000000 | TPS 1021.86 | ETA 00:48:03
Time 02:28:30 | Step 9063814 / 12000000 | TPS 1020.59 | ETA 00:47:56
Time 02:28:40 | Step 9074022 / 12000000 | TPS 1020.74 | ETA 00:47:46
Time 02:28:50 | Step 9084210 / 12000000 | TPS 1018.76 | ETA 00:47:42
Time 02:29:00 | Step 9094392 / 12000000 | TPS 1018.19 | ETA 00:47:33
Time 02:29:10 | Step 9104565 / 12000000 | TPS 1017.21 | ETA 00:47:26
Time 02:29:20 | Step 9114730 / 12000000 | TPS 1016.46 | ETA 00:47:18
Time 02:29:30 | Step 9124932 / 12000000 | TPS 1020.1 | ETA 00:46:58
Time 02:29:40 | Step 9135014 / 12000000 | TPS 1008.18 | ETA 00:47:21
Time 02:29:50 | Step 9145229 / 12000000 | TPS 1021.42 | ETA 00:46:34
Time 02:30:00 | Step 9155285 / 12000000 | TPS 1005.51 | ETA 00:47:09
Time 02:30:10 | Step 9165440 / 12000000 | TPS 1015.48 | ETA 00:46:31
Time 02:30:20 | Step 9175627 / 12000000 | TPS 1018.64 | ETA 00:46:12
Time 02:30:30 | Step 9185770 / 12000000 | TPS 1014.22 | ETA 00:46:14
Time 02:30:40 | Step 9195979 / 12000000 | TPS 1020.9 | ETA 00:45:46
Time 02:30:50 | Step 9206150 / 12000000 | TPS 1017.08 | ETA 00:45:46
Time 02:31:00 | Step 9216340 / 12000000 | TPS 1018.97 | ETA 00:45:31
Time 02:31:10 | Step 9226473 / 12000000 | TPS 1013.22 | ETA 00:45:37
Time 02:31:20 | Step 9236576 / 12000000 | TPS 1010.22 | ETA 00:45:35
Time 02:31:30 | Step 9246782 / 12000000 | TPS 1020.55 | ETA 00:44:57
Time 02:31:40 | Step 9256926 / 12000000 | TPS 1014.36 | ETA 00:45:04
Time 02:31:50 | Step 9267085 / 12000000 | TPS 1015.88 | ETA 00:44:50
Time 02:32:00 | Step 9277284 / 12000000 | TPS 1019.85 | ETA 00:44:29
Time 02:32:10 | Step 9287426 / 12000000 | TPS 1014.14 | ETA 00:44:34
Time 02:32:20 | Step 9297611 / 12000000 | TPS 1018.5 | ETA 00:44:13
Time 02:32:30 | Step 9307774 / 12000000 | TPS 1016.27 | ETA 00:44:09
Time 02:32:40 | Step 9317880 / 12000000 | TPS 1010.58 | ETA 00:44:14
Time 02:32:50 | Step 9328009 / 12000000 | TPS 1012.9 | ETA 00:43:57
Time 02:33:00 | Step 9338192 / 12000000 | TPS 1018.19 | ETA 00:43:34
Time 02:33:10 | Step 9348374 / 12000000 | TPS 1018.12 | ETA 00:43:24
Time 02:33:20 | Step 9358483 / 12000000 | TPS 1010.87 | ETA 00:43:33
Time 02:33:30 | Step 9368705 / 12000000 | TPS 1022.12 | ETA 00:42:54
Time 02:33:40 | Step 9378874 / 12000000 | TPS 1016.85 | ETA 00:42:57
Time 02:33:50 | Step 9389058 / 12000000 | TPS 1018.34 | ETA 00:42:43
Time 02:34:00 | Step 9399248 / 12000000 | TPS 1018.98 | ETA 00:42:32
Time 02:34:10 | Step 9409435 / 12000000 | TPS 1018.67 | ETA 00:42:23
Time 02:34:20 | Step 9419639 / 12000000 | TPS 1020.32 | ETA 00:42:08
Time 02:34:30 | Step 9429789 / 12000000 | TPS 1014.94 | ETA 00:42:12
Time 02:34:40 | Step 9439889 / 12000000 | TPS 1009.95 | ETA 00:42:14
Time 02:34:50 | Step 9450142 / 12000000 | TPS 1025.23 | ETA 00:41:27
Time 02:35:00 | Step 9460264 / 12000000 | TPS 1012.19 | ETA 00:41:49
Time 02:35:10 | Step 9470435 / 12000000 | TPS 1017.08 | ETA 00:41:27
Time 02:35:20 | Step 9480596 / 12000000 | TPS 1016.02 | ETA 00:41:19
Time 02:35:30 | Step 9490760 / 12000000 | TPS 1016.36 | ETA 00:41:08
Time 02:35:40 | Step 9500949 / 12000000 | TPS 1018.87 | ETA 00:40:52
Time 02:35:50 | Step 9511109 / 12000000 | TPS 1015.98 | ETA 00:40:49
Time 02:36:00 | Step 9521293 / 12000000 | TPS 1018.34 | ETA 00:40:34
Time 02:36:10 | Step 9531479 / 12000000 | TPS 1018.48 | ETA 00:40:23
Time 02:36:20 | Step 9541492 / 12000000 | TPS 1001.25 | ETA 00:40:55
Time 02:36:30 | Step 9551694 / 12000000 | TPS 1020.14 | ETA 00:39:59
Time 02:36:40 | Step 9561879 / 12000000 | TPS 1018.41 | ETA 00:39:54
Time 02:36:50 | Step 9572079 / 12000000 | TPS 1019.97 | ETA 00:39:40
Time 02:37:00 | Step 9582296 / 12000000 | TPS 1021.66 | ETA 00:39:26
Time 02:37:10 | Step 9592567 / 12000000 | TPS 1027.07 | ETA 00:39:03
Time 02:37:20 | Step 9602738 / 12000000 | TPS 1017.05 | ETA 00:39:17
Time 02:37:30 | Step 9612942 / 12000000 | TPS 1020.32 | ETA 00:38:59
Time 02:37:40 | Step 9623104 / 12000000 | TPS 1016.17 | ETA 00:38:59
Time 02:37:50 | Step 9633300 / 12000000 | TPS 1019.58 | ETA 00:38:41
Time 02:38:00 | Step 9643467 / 12000000 | TPS 1016.63 | ETA 00:38:37
Time 02:38:10 | Step 9653648 / 12000000 | TPS 1018.02 | ETA 00:38:24
Time 02:38:20 | Step 9663752 / 12000000 | TPS 1010.39 | ETA 00:38:32
Time 02:38:30 | Step 9673919 / 12000000 | TPS 1016.61 | ETA 00:38:08
Time 02:38:40 | Step 9684058 / 12000000 | TPS 1013.84 | ETA 00:38:04
Time 02:38:50 | Step 9694252 / 12000000 | TPS 1019.39 | ETA 00:37:41
Time 02:39:00 | Step 9704479 / 12000000 | TPS 1022.65 | ETA 00:37:24
Time 02:39:10 | Step 9714714 / 12000000 | TPS 1023.42 | ETA 00:37:12
Time 02:39:20 | Step 9724943 / 12000000 | TPS 1022.88 | ETA 00:37:04
Time 02:39:30 | Step 9735004 / 12000000 | TPS 1006.08 | ETA 00:37:31
Time 02:39:40 | Step 9745234 / 12000000 | TPS 1022.98 | ETA 00:36:44
Time 02:39:50 | Step 9755413 / 12000000 | TPS 1017.89 | ETA 00:36:45
Time 02:40:00 | Step 9765431 / 12000000 | TPS 1001.71 | ETA 00:37:10
Time 02:40:10 | Step 9775631 / 12000000 | TPS 1019.92 | ETA 00:36:20
Time 02:40:20 | Step 9785780 / 12000000 | TPS 1014.85 | ETA 00:36:21
Time 02:40:30 | Step 9795872 / 12000000 | TPS 1009.18 | ETA 00:36:24
Time 02:40:40 | Step 9806035 / 12000000 | TPS 1016.21 | ETA 00:35:58
Time 02:40:50 | Step 9816185 / 12000000 | TPS 1015 | ETA 00:35:51
Time 02:41:00 | Step 9826372 / 12000000 | TPS 1018.62 | ETA 00:35:33
Time 02:41:10 | Step 9836570 / 12000000 | TPS 1019.8 | ETA 00:35:21
Time 02:41:20 | Step 9846766 / 12000000 | TPS 1019.57 | ETA 00:35:11
Time 02:41:30 | Step 9856941 / 12000000 | TPS 1017.45 | ETA 00:35:06
Time 02:41:40 | Step 9867142 / 12000000 | TPS 1020.02 | ETA 00:34:50
Time 02:41:50 | Step 9877346 / 12000000 | TPS 1020.37 | ETA 00:34:40
Time 02:42:00 | Step 9887503 / 12000000 | TPS 1015.68 | ETA 00:34:39
Time 02:42:10 | Step 9897649 / 12000000 | TPS 1014.54 | ETA 00:34:32
Time 02:42:20 | Step 9907821 / 12000000 | TPS 1017.2 | ETA 00:34:16
Time 02:42:30 | Step 9918079 / 12000000 | TPS 1025.76 | ETA 00:33:49
Time 02:42:40 | Step 9928255 / 12000000 | TPS 1017.56 | ETA 00:33:55
Time 02:42:50 | Step 9938314 / 12000000 | TPS 1005.88 | ETA 00:34:09
Time 02:43:00 | Step 9948468 / 12000000 | TPS 1015.33 | ETA 00:33:40
Time 02:43:10 | Step 9958677 / 12000000 | TPS 1020.84 | ETA 00:33:19
Time 02:43:20 | Step 9968770 / 12000000 | TPS 1009.26 | ETA 00:33:32
Time 02:43:30 | Step 9978938 / 12000000 | TPS 1016.78 | ETA 00:33:07
Time 02:43:40 | Step 9989121 / 12000000 | TPS 1018.24 | ETA 00:32:54
Time 02:43:50 | Step 9999324 / 12000000 | TPS 1020.29 | ETA 00:32:40
Time 02:44:00 | Step 10009522 / 12000000 | TPS 1019.73 | ETA 00:32:31
Time 02:44:10 | Step 10019684 / 12000000 | TPS 1016.12 | ETA 00:32:28
Time 02:44:20 | Step 10029819 / 12000000 | TPS 1013.4 | ETA 00:32:24
Time 02:44:30 | Step 10040037 / 12000000 | TPS 1021.79 | ETA 00:31:58
Time 02:44:40 | Step 10050013 / 12000000 | TPS 997.529 | ETA 00:32:34
Time 02:44:50 | Step 10060168 / 12000000 | TPS 1015.46 | ETA 00:31:50
Time 02:45:00 | Step 10070349 / 12000000 | TPS 1018.04 | ETA 00:31:35
Time 02:45:10 | Step 10080554 / 12000000 | TPS 1020.4 | ETA 00:31:21
Time 02:45:20 | Step 10090626 / 12000000 | TPS 1007.12 | ETA 00:31:35
Time 02:45:30 | Step 10100778 / 12000000 | TPS 1015.12 | ETA 00:31:10
Time 02:45:40 | Step 10110850 / 12000000 | TPS 1007.18 | ETA 00:31:15
Time 02:45:50 | Step 10120803 / 12000000 | TPS 995.22 | ETA 00:31:28
Time 02:46:00 | Step 10131073 / 12000000 | TPS 1026.98 | ETA 00:30:19
Time 02:46:10 | Step 10141261 / 12000000 | TPS 1018.79 | ETA 00:30:24
Time 02:46:20 | Step 10151471 / 12000000 | TPS 1020.92 | ETA 00:30:10
Time 02:46:30 | Step 10161672 / 12000000 | TPS 1020.02 | ETA 00:30:02
Time 02:46:40 | Step 10171753 / 12000000 | TPS 1008.04 | ETA 00:30:13
Time 02:46:50 | Step 10181917 / 12000000 | TPS 1016.35 | ETA 00:29:48
Time 02:47:00 | Step 10192118 / 12000000 | TPS 1020.08 | ETA 00:29:32
Time 02:47:10 | Step 10202302 / 12000000 | TPS 1018.36 | ETA 00:29:25
Time 02:47:20 | Step 10212505 / 12000000 | TPS 1020.26 | ETA 00:29:12
Time 02:47:30 | Step 10222610 / 12000000 | TPS 1010.49 | ETA 00:29:18
Time 02:47:40 | Step 10232704 / 12000000 | TPS 1009.37 | ETA 00:29:10
Time 02:47:50 | Step 10242883 / 12000000 | TPS 1017.87 | ETA 00:28:46
Time 02:48:00 | Step 10253091 / 12000000 | TPS 1020.78 | ETA 00:28:31
Time 02:48:10 | Step 10263308 / 12000000 | TPS 1021.63 | ETA 00:28:19
Time 02:48:20 | Step 10273469 / 12000000 | TPS 1016.05 | ETA 00:28:19
Time 02:48:30 | Step 10283488 / 12000000 | TPS 1001.9 | ETA 00:28:33
Time 02:48:40 | Step 10293613 / 12000000 | TPS 1012.42 | ETA 00:28:05
Time 02:48:50 | Step 10303561 / 12000000 | TPS 994.75 | ETA 00:28:25
Time 02:49:00 | Step 10313679 / 12000000 | TPS 1011.71 | ETA 00:27:46
Time 02:49:10 | Step 10323817 / 12000000 | TPS 1013.74 | ETA 00:27:33
Time 02:49:20 | Step 10333955 / 12000000 | TPS 1013.7 | ETA 00:27:23
Time 02:49:30 | Step 10344120 / 12000000 | TPS 1016.44 | ETA 00:27:09
Time 02:49:40 | Step 10354293 / 12000000 | TPS 1017.24 | ETA 00:26:57
Time 02:49:50 | Step 10364474 / 12000000 | TPS 1018.06 | ETA 00:26:46
Time 02:50:00 | Step 10374644 / 12000000 | TPS 1016.93 | ETA 00:26:38
Time 02:50:10 | Step 10384804 / 12000000 | TPS 1015.95 | ETA 00:26:29
Time 02:50:20 | Step 10394981 / 12000000 | TPS 1017.6 | ETA 00:26:17
Time 02:50:30 | Step 10405152 / 12000000 | TPS 1017.06 | ETA 00:26:08
Time 02:50:40 | Step 10415327 / 12000000 | TPS 1017.4 | ETA 00:25:57
Time 02:50:50 | Step 10425360 / 12000000 | TPS 1003.26 | ETA 00:26:09
Time 02:51:00 | Step 10435531 / 12000000 | TPS 1017.03 | ETA 00:25:38
Time 02:51:10 | Step 10445721 / 12000000 | TPS 1018.99 | ETA 00:25:25
Time 02:51:20 | Step 10455879 / 12000000 | TPS 1015.73 | ETA 00:25:20
Time 02:51:30 | Step 10465978 / 12000000 | TPS 1009.87 | ETA 00:25:19
Time 02:51:40 | Step 10476107 / 12000000 | TPS 1012.84 | ETA 00:25:04
Time 02:51:50 | Step 10486317 / 12000000 | TPS 1020.99 | ETA 00:24:42
Time 02:52:00 | Step 10496522 / 12000000 | TPS 1020.47 | ETA 00:24:33
Time 02:52:10 | Step 10506706 / 12000000 | TPS 1018.4 | ETA 00:24:26
Time 02:52:20 | Step 10516909 / 12000000 | TPS 1020.29 | ETA 00:24:13
Time 02:52:30 | Step 10526896 / 12000000 | TPS 998.575 | ETA 00:24:35
Time 02:52:40 | Step 10537076 / 12000000 | TPS 1017.91 | ETA 00:23:57
Time 02:52:50 | Step 10547326 / 12000000 | TPS 1024.97 | ETA 00:23:37
Time 02:53:00 | Step 10557500 / 12000000 | TPS 1017.28 | ETA 00:23:37
Time 02:53:10 | Step 10567701 / 12000000 | TPS 1020.02 | ETA 00:23:24
Time 02:53:20 | Step 10577888 / 12000000 | TPS 1018.62 | ETA 00:23:16
Time 02:53:30 | Step 10588072 / 12000000 | TPS 1018.36 | ETA 00:23:06
Time 02:53:40 | Step 10598250 / 12000000 | TPS 1017.76 | ETA 00:22:57
Time 02:53:50 | Step 10608417 / 12000000 | TPS 1016.69 | ETA 00:22:48
Time 02:54:00 | Step 10618649 / 12000000 | TPS 1023.15 | ETA 00:22:30
Time 02:54:10 | Step 10628888 / 12000000 | TPS 1023.82 | ETA 00:22:19
Time 02:54:20 | Step 10639083 / 12000000 | TPS 1019.48 | ETA 00:22:14
Time 02:54:30 | Step 10649281 / 12000000 | TPS 1019.74 | ETA 00:22:04
Time 02:54:40 | Step 10659467 / 12000000 | TPS 1018.55 | ETA 00:21:56
Time 02:54:50 | Step 10669626 / 12000000 | TPS 1015.78 | ETA 00:21:49
Time 02:55:00 | Step 10679755 / 12000000 | TPS 1012.86 | ETA 00:21:43
Time 02:55:10 | Step 10689974 / 12000000 | TPS 1021.88 | ETA 00:21:21
Time 02:55:20 | Step 10700167 / 12000000 | TPS 1019.26 | ETA 00:21:15
Time 02:55:30 | Step 10710378 / 12000000 | TPS 1021.04 | ETA 00:21:03
Time 02:55:40 | Step 10720566 / 12000000 | TPS 1018.79 | ETA 00:20:55
Time 02:55:50 | Step 10730758 / 12000000 | TPS 1019.17 | ETA 00:20:45
Time 02:56:00 | Step 10740870 / 12000000 | TPS 1011.16 | ETA 00:20:45
Time 02:56:10 | Step 10750964 / 12000000 | TPS 1009.32 | ETA 00:20:37
Time 02:56:20 | Step 10761085 / 12000000 | TPS 1011.99 | ETA 00:20:24
Time 02:56:30 | Step 10771296 / 12000000 | TPS 1021.09 | ETA 00:20:03
Time 02:56:40 | Step 10781455 / 12000000 | TPS 1015.85 | ETA 00:19:59
Time 02:56:50 | Step 10791653 / 12000000 | TPS 1019.79 | ETA 00:19:44
Time 02:57:00 | Step 10801846 / 12000000 | TPS 1019.3 | ETA 00:19:35
Time 02:57:10 | Step 10811983 / 12000000 | TPS 1013.63 | ETA 00:19:32
Time 02:57:20 | Step 10822188 / 12000000 | TPS 1020.41 | ETA 00:19:14
Time 02:57:30 | Step 10832405 / 12000000 | TPS 1021.67 | ETA 00:19:02
Time 02:57:40 | Step 10842589 / 12000000 | TPS 1018.38 | ETA 00:18:56
Time 02:57:50 | Step 10852788 / 12000000 | TPS 1019.84 | ETA 00:18:44
Time 02:58:00 | Step 10862928 / 12000000 | TPS 1013.92 | ETA 00:18:41
Time 02:58:10 | Step 10873116 / 12000000 | TPS 1018.75 | ETA 00:18:26
Time 02:58:20 | Step 10883335 / 12000000 | TPS 1021.9 | ETA 00:18:12
Time 02:58:30 | Step 10893496 / 12000000 | TPS 1016.06 | ETA 00:18:09
Time 02:58:40 | Step 10903691 / 12000000 | TPS 1019.48 | ETA 00:17:55
Time 02:58:50 | Step 10913896 / 12000000 | TPS 1020.43 | ETA 00:17:44
Time 02:59:00 | Step 10924032 / 12000000 | TPS 1013.59 | ETA 00:17:41
Time 02:59:10 | Step 10934160 / 12000000 | TPS 1012.79 | ETA 00:17:32
Time 02:59:20 | Step 10944398 / 12000000 | TPS 1023.72 | ETA 00:17:11
Time 02:59:30 | Step 10954553 / 12000000 | TPS 1015.5 | ETA 00:17:09
Time 02:59:40 | Step 10964741 / 12000000 | TPS 1018.71 | ETA 00:16:56
Time 02:59:50 | Step 10974964 / 12000000 | TPS 1022.27 | ETA 00:16:42
Time 03:00:00 | Step 10985141 / 12000000 | TPS 1017.68 | ETA 00:16:37
Time 03:00:10 | Step 10995317 / 12000000 | TPS 1017.57 | ETA 00:16:27
Time 03:00:20 | Step 11005406 / 12000000 | TPS 1008.86 | ETA 00:16:25
Time 03:00:30 | Step 11015601 / 12000000 | TPS 1019.41 | ETA 00:16:05
Time 03:00:40 | Step 11025763 / 12000000 | TPS 1016.13 | ETA 00:15:58
Time 03:00:50 | Step 11035974 / 12000000 | TPS 1021.08 | ETA 00:15:44
Time 03:01:00 | Step 11046146 / 12000000 | TPS 1017.15 | ETA 00:15:37
Time 03:01:10 | Step 11056257 / 12000000 | TPS 1011.03 | ETA 00:15:33
Time 03:01:20 | Step 11066441 / 12000000 | TPS 1018.32 | ETA 00:15:16
Time 03:01:30 | Step 11076468 / 12000000 | TPS 1002.63 | ETA 00:15:21
Time 03:01:40 | Step 11086676 / 12000000 | TPS 1020.71 | ETA 00:14:54
Time 03:01:50 | Step 11096851 / 12000000 | TPS 1017.41 | ETA 00:14:47
Time 03:02:00 | Step 11107051 / 12000000 | TPS 1019.94 | ETA 00:14:35
Time 03:02:10 | Step 11117268 / 12000000 | TPS 1021.61 | ETA 00:14:24
Time 03:02:20 | Step 11127471 / 12000000 | TPS 1020.24 | ETA 00:14:15
Time 03:02:30 | Step 11137654 / 12000000 | TPS 1018.28 | ETA 00:14:06
Time 03:02:40 | Step 11147858 / 12000000 | TPS 1020.34 | ETA 00:13:55
Time 03:02:50 | Step 11157988 / 12000000 | TPS 1012.92 | ETA 00:13:51
Time 03:03:00 | Step 11168138 / 12000000 | TPS 1015 | ETA 00:13:39
Time 03:03:10 | Step 11178276 / 12000000 | TPS 1013.69 | ETA 00:13:30
Time 03:03:20 | Step 11188324 / 12000000 | TPS 1004.71 | ETA 00:13:27
Time 03:03:30 | Step 11198523 / 12000000 | TPS 1019.83 | ETA 00:13:05
Time 03:03:40 | Step 11208774 / 12000000 | TPS 1025 | ETA 00:12:51
Time 03:03:50 | Step 11218875 / 12000000 | TPS 1010.02 | ETA 00:12:53
Time 03:04:00 | Step 11229079 / 12000000 | TPS 1020.38 | ETA 00:12:35
Time 03:04:10 | Step 11239255 / 12000000 | TPS 1017.55 | ETA 00:12:27
Time 03:04:20 | Step 11249482 / 12000000 | TPS 1022.68 | ETA 00:12:13
Time 03:04:30 | Step 11259550 / 12000000 | TPS 1006.72 | ETA 00:12:15
Time 03:04:40 | Step 11269456 / 12000000 | TPS 990.584 | ETA 00:12:17
Time 03:04:50 | Step 11279644 / 12000000 | TPS 1018.77 | ETA 00:11:47
Time 03:05:00 | Step 11289826 / 12000000 | TPS 1018.16 | ETA 00:11:37
Time 03:05:10 | Step 11299970 / 12000000 | TPS 1014.35 | ETA 00:11:30
Time 03:05:20 | Step 11310175 / 12000000 | TPS 1020.49 | ETA 00:11:15
Time 03:05:30 | Step 11320327 / 12000000 | TPS 1015.11 | ETA 00:11:09
Time 03:05:40 | Step 11330458 / 12000000 | TPS 1013.01 | ETA 00:11:00
Time 03:05:50 | Step 11340689 / 12000000 | TPS 1023.04 | ETA 00:10:44
Time 03:06:00 | Step 11350885 / 12000000 | TPS 1019.59 | ETA 00:10:36
Time 03:06:10 | Step 11361113 / 12000000 | TPS 1022.79 | ETA 00:10:24
Time 03:06:20 | Step 11371361 / 12000000 | TPS 1024.76 | ETA 00:10:13
Time 03:06:30 | Step 11381585 / 12000000 | TPS 1022.31 | ETA 00:10:04
Time 03:06:40 | Step 11391808 / 12000000 | TPS 1022.26 | ETA 00:09:54
Time 03:06:50 | Step 11402011 / 12000000 | TPS 1020.23 | ETA 00:09:46
Time 03:07:00 | Step 11412169 / 12000000 | TPS 1015.71 | ETA 00:09:38
Time 03:07:10 | Step 11422362 / 12000000 | TPS 1019.28 | ETA 00:09:26
Time 03:07:20 | Step 11432568 / 12000000 | TPS 1020.51 | ETA 00:09:16
Time 03:07:30 | Step 11442687 / 12000000 | TPS 1011.84 | ETA 00:09:10
Time 03:07:40 | Step 11452873 / 12000000 | TPS 1018.59 | ETA 00:08:57
Time 03:07:50 | Step 11463088 / 12000000 | TPS 1021.47 | ETA 00:08:45
Time 03:08:00 | Step 11473218 / 12000000 | TPS 1012.9 | ETA 00:08:40
Time 03:08:10 | Step 11483405 / 12000000 | TPS 1018.65 | ETA 00:08:27
Time 03:08:20 | Step 11493545 / 12000000 | TPS 1013.99 | ETA 00:08:19
Time 03:08:30 | Step 11503713 / 12000000 | TPS 1016.75 | ETA 00:08:08
Time 03:08:40 | Step 11513779 / 12000000 | TPS 1006.59 | ETA 00:08:03
Time 03:08:50 | Step 11523986 / 12000000 | TPS 1020.66 | ETA 00:07:46
Time 03:09:00 | Step 11534234 / 12000000 | TPS 1024.71 | ETA 00:07:34
Time 03:09:10 | Step 11544407 / 12000000 | TPS 1017.24 | ETA 00:07:27
Time 03:09:20 | Step 11554463 / 12000000 | TPS 1005.57 | ETA 00:07:23
Time 03:09:30 | Step 11564633 / 12000000 | TPS 1016.99 | ETA 00:07:08
Time 03:09:40 | Step 11574790 / 12000000 | TPS 1015.68 | ETA 00:06:58
Time 03:09:50 | Step 11584960 / 12000000 | TPS 1016.93 | ETA 00:06:48
Time 03:10:00 | Step 11594818 / 12000000 | TPS 985.714 | ETA 00:06:51
Time 03:10:10 | Step 11605013 / 12000000 | TPS 1019.45 | ETA 00:06:27
Time 03:10:20 | Step 11615221 / 12000000 | TPS 1020.75 | ETA 00:06:16
Time 03:10:30 | Step 11625428 / 12000000 | TPS 1020.61 | ETA 00:06:07
Time 03:10:40 | Step 11635669 / 12000000 | TPS 1024.06 | ETA 00:05:55
Time 03:10:50 | Step 11645802 / 12000000 | TPS 1013.22 | ETA 00:05:49
Time 03:11:00 | Step 11655987 / 12000000 | TPS 1018.5 | ETA 00:05:37
Time 03:11:10 | Step 11666212 / 12000000 | TPS 1022.49 | ETA 00:05:26
Time 03:11:20 | Step 11676410 / 12000000 | TPS 1019.72 | ETA 00:05:17
Time 03:11:30 | Step 11686631 / 12000000 | TPS 1022.09 | ETA 00:05:06
Time 03:11:40 | Step 11696829 / 12000000 | TPS 1019.76 | ETA 00:04:57
Time 03:11:50 | Step 11707068 / 12000000 | TPS 1023.84 | ETA 00:04:46
Time 03:12:00 | Step 11717154 / 12000000 | TPS 1008.55 | ETA 00:04:40
Time 03:12:10 | Step 11727327 / 12000000 | TPS 1017.25 | ETA 00:04:28
Time 03:12:20 | Step 11737592 / 12000000 | TPS 1026.47 | ETA 00:04:15
Time 03:12:30 | Step 11747702 / 12000000 | TPS 1010.97 | ETA 00:04:09
Time 03:12:40 | Step 11757922 / 12000000 | TPS 1021.96 | ETA 00:03:56
Time 03:12:50 | Step 11768126 / 12000000 | TPS 1020.36 | ETA 00:03:47
Time 03:13:00 | Step 11778311 / 12000000 | TPS 1018.44 | ETA 00:03:37
Time 03:13:10 | Step 11788515 / 12000000 | TPS 1020.39 | ETA 00:03:27
Time 03:13:20 | Step 11798683 / 12000000 | TPS 1016.74 | ETA 00:03:18
Time 03:13:30 | Step 11808876 / 12000000 | TPS 1019.27 | ETA 00:03:07
Time 03:13:40 | Step 11819090 / 12000000 | TPS 1021.37 | ETA 00:02:57
Time 03:13:50 | Step 11829288 / 12000000 | TPS 1019.73 | ETA 00:02:47
Time 03:14:00 | Step 11839442 / 12000000 | TPS 1015.39 | ETA 00:02:38
Time 03:14:10 | Step 11849456 / 12000000 | TPS 1001.33 | ETA 00:02:30
Time 03:14:20 | Step 11859542 / 12000000 | TPS 1008.54 | ETA 00:02:19
Time 03:14:30 | Step 11869633 / 12000000 | TPS 1009.03 | ETA 00:02:09
Time 03:14:40 | Step 11879832 / 12000000 | TPS 1019.81 | ETA 00:01:57
Time 03:14:50 | Step 11889930 / 12000000 | TPS 1009.73 | ETA 00:01:49
Time 03:15:00 | Step 11900153 / 12000000 | TPS 1022.24 | ETA 00:01:37
Time 03:15:10 | Step 11910342 / 12000000 | TPS 1018.89 | ETA 00:01:27
Time 03:15:20 | Step 11920383 / 12000000 | TPS 1004.02 | ETA 00:01:19
Time 03:15:30 | Step 11930585 / 12000000 | TPS 1020.19 | ETA 00:01:08
Time 03:15:40 | Step 11940762 / 12000000 | TPS 1017.6 | ETA 00:00:58
Time 03:15:50 | Step 11950986 / 12000000 | TPS 1022.34 | ETA 00:00:47
Time 03:16:00 | Step 11961148 / 12000000 | TPS 1016.18 | ETA 00:00:38
Time 03:16:10 | Step 11971345 / 12000000 | TPS 1019.62 | ETA 00:00:28
Time 03:16:20 | Step 11981517 / 12000000 | TPS 1017.16 | ETA 00:00:18
Time 03:16:30 | Step 11991732 / 12000000 | TPS 1021.46 | ETA 00:00:08
Time 03:16:38 | Step 12000000 / 12000000 | TPS 1021.28 | ETA 00:00:00
Average TPS: 1017.06
---------
notice(2): -- HPMC stats:
notice(2): Average translate acceptance: 0.659102
notice(2): Average swap acceptance:    0.894921
notice(2): Trial moves per second:        3.61143e+06
notice(2): Overlap checks per second:     9.03103e+07
notice(2): Overlap checks per trial move: 25.0068
notice(2): Number of overlap errors:      0
** run complete **
